 &FCI NORB=  2,NELEC=  2,MS2= 0,
    ORBSYM=1, 1, 
    ISYM=1,
 &End
  0.63381402332094217                1           1           1           1
  0.62336799702480361                2           2           1           1
  0.28552799554182806                2           1           2           1
  0.15909807434528439                1           2           2           1
  0.15909807434528439                2           1           1           2
   3.2668153148740747E-002           1           2           1           2
  0.62336799702480117                1           1           2           2
  0.65571787854132557                2           2           2           2
  -1.2569814126797367                1           1           0           0
 -0.47995972281567761                2           2           0           0
  0.71413928599190324                0           0           0           0
