  &FCI NORB=   4,NELEC= 4,MS2=0,
   ORBSYM=1,1,1,1,
   ISYM=1,
  &END
   1.6033471928194880                1           1           1           1
  -7.6043379094224733E-002           1           1           1           2
  -6.9308114905152915E-002           1           1           1           4
 -0.13664630101306852                1           1           2           1
  0.36148941191997153                1           1           2           2
   3.4050443442291606E-002           1           1           2           4
  0.38949816097949214                1           1           3           3
 -0.13556153726966633                1           1           4           1
   5.3632674355960350E-002           1           1           4           2
  0.35297374001531434                1           1           4           4
  -7.6043379094224733E-002           1           2           1           1
   4.7621200680266554E-003           1           2           1           2
   4.1963814011047717E-003           1           2           1           4
   1.2885935077884641E-002           1           2           2           1
  -5.5904426755875132E-003           1           2           2           2
  -7.9719913395063374E-004           1           2           2           4
  -8.6488345194399747E-003           1           2           3           3
   1.3746120064005198E-002           1           2           4           1
  -2.4518149667243252E-003           1           2           4           2
  -6.6511139100136904E-003           1           2           4           4
   2.1762000702114995E-003           1           3           1           3
   1.8604912259212710E-003           1           3           2           3
   9.5164649714718375E-003           1           3           3           1
   2.6991305917444105E-003           1           3           3           2
   3.2059533254060989E-003           1           3           3           4
   3.4445992016341777E-003           1           3           4           3
  -6.9308114905152915E-002           1           4           1           1
   4.1963814011047717E-003           1           4           1           2
   3.6813233238846988E-003           1           4           1           4
   1.1766869548884212E-002           1           4           2           1
  -9.6910317492364395E-003           1           4           2           2
  -9.9958645365449310E-004           1           4           2           4
  -9.7252949294674464E-003           1           4           3           3
   1.3008252275751898E-002           1           4           4           1
  -5.4292964558758745E-004           1           4           4           2
  -9.8309378502470512E-003           1           4           4           4
 -0.13664630101306852                2           1           1           1
   1.2885935077884641E-002           2           1           1           2
   1.1766869548884212E-002           2           1           1           4
   2.1009750087742626E-002           2           1           2           1
   1.7391886553114907E-002           2           1           2           2
  -8.0871833129114584E-003           2           1           2           4
   8.9477734616972941E-004           2           1           3           3
   2.1316608211784639E-002           2           1           4           1
  -9.7417991456851503E-003           2           1           4           2
   1.3295791830902279E-002           2           1           4           4
  0.36148941191997153                2           2           1           1
  -5.5904426755875132E-003           2           2           1           2
  -9.6910317492364395E-003           2           2           1           4
   1.7391886553114907E-002           2           2           2           1
  0.46434131154069558                2           2           2           2
  -9.3359243838857214E-002           2           2           2           4
  0.26482719783575881                2           2           3           3
   1.0995615820513730E-002           2           2           4           1
 -0.14811953263273273                2           2           4           2
  0.43370119873206958                2           2           4           4
   1.8604912259212710E-003           2           3           1           3
   1.8784244913095566E-002           2           3           2           3
   1.1174177613737261E-002           2           3           3           1
   2.1509547196313761E-002           2           3           3           2
   2.1469383150021459E-002           2           3           3           4
   2.3149677578700293E-002           2           3           4           3
   3.4050443442291606E-002           2           4           1           1
  -7.9719913395063374E-004           2           4           1           2
  -9.9958645365449310E-004           2           4           1           4
  -8.0871833129114584E-003           2           4           2           1
  -9.3359243838857214E-002           2           4           2           2
   5.5454346662432527E-002           2           4           2           4
   9.6057696242994334E-003           2           4           3           3
  -1.7716076073862063E-003           2           4           4           1
  0.11651789236539711                2           4           4           2
  -9.5714431706414083E-002           2           4           4           4
   9.5164649714718375E-003           3           1           1           3
   1.1174177613737261E-002           3           1           2           3
   1.6856729872732176E-002           3           1           3           1
   1.2012816979560401E-002           3           1           3           2
   1.4680227125443798E-002           3           1           3           4
   1.4918873001671877E-002           3           1           4           3
   2.6991305917444105E-003           3           2           1           3
   2.1509547196313761E-002           3           2           2           3
   1.2012816979560401E-002           3           2           3           1
   2.4234849479531955E-002           3           2           3           2
   2.4415699549684165E-002           3           2           3           4
   2.6095993978363000E-002           3           2           4           3
  0.38949816097949214                3           3           1           1
  -8.6488345194399747E-003           3           3           1           2
  -9.7252949294674464E-003           3           3           1           4
   8.9477734616972941E-004           3           3           2           1
  0.26482719783575881                3           3           2           2
   9.6057696242994334E-003           3           3           2           4
  0.30468250424362764                3           3           3           3
   5.4337199122772148E-003           3           3           4           1
   2.3134909759300368E-002           3           3           4           2
  0.26399929982148534                3           3           4           4
   3.2059533254060989E-003           3           4           1           3
   2.1469383150021459E-002           3           4           2           3
   1.4680227125443798E-002           3           4           3           1
   2.4415699549684165E-002           3           4           3           2
   2.9500900873631393E-002           3           4           3           4
   3.0788011174830245E-002           3           4           4           3
 -0.13556153726966633                4           1           1           1
   1.3746120064005198E-002           4           1           1           2
   1.3008252275751898E-002           4           1           1           4
   2.1316608211784639E-002           4           1           2           1
   1.0995615820513730E-002           4           1           2           2
  -1.7716076073862063E-003           4           1           2           4
   5.4337199122772148E-003           4           1           3           3
   2.2335181227619100E-002           4           1           4           1
  -1.3149507993193007E-003           4           1           4           2
   8.4513435495789727E-003           4           1           4           4
   5.3632674355960350E-002           4           2           1           1
  -2.4518149667243252E-003           4           2           1           2
  -5.4292964558758745E-004           4           2           1           4
  -9.7417991456851503E-003           4           2           2           1
 -0.14811953263273273                4           2           2           2
  0.11651789236539711                4           2           2           4
   2.3134909759300368E-002           4           2           3           3
  -1.3149507993193007E-003           4           2           4           1
  0.17758143806836169                4           2           4           2
 -0.15245533712448209                4           2           4           4
   3.4445992016341777E-003           4           3           1           3
   2.3149677578700293E-002           4           3           2           3
   1.4918873001671877E-002           4           3           3           1
   2.6095993978363000E-002           4           3           3           2
   3.0788011174830245E-002           4           3           3           4
   3.2075121476029096E-002           4           3           4           3
  0.35297374001531434                4           4           1           1
  -6.6511139100136904E-003           4           4           1           2
  -9.8309378502470512E-003           4           4           1           4
   1.3295791830902279E-002           4           4           2           1
  0.43370119873206958                4           4           2           2
  -9.5714431706414083E-002           4           4           2           4
  0.26399929982148534                4           4           3           3
   8.4513435495789727E-003           4           4           4           1
 -0.15245533712448209                4           4           4           2
  0.43265081582866755                4           4           4           4
  -4.7743730234758512                1           1           0           0
  0.10470169512771910                2           1           0           0
  -1.4994136229579731                2           2           0           0
  -1.1387322276995340                3           3           0           0
  0.10044701532274319                4           1           0           0
   5.8993784272062942E-002           4           2           0           0
  -1.0065791969792171                4           4           0           0
  0.99531763809404405                0           0           0           0
