 &FCI NORB=   6,NELEC= 4,MS2=0,
  ORBSYM=1,1,1,1,1,1,
  ISYM=1,
 &END
 1.664501712588351    1    1    1    1
 -0.1110446026954398    1    1    2    1
 0.3680414576058485    1    1    2    2
 -0.1414429608695149    1    1    3    1
 0.01473770813409701    1    1    3    2
 0.3997525447521847    1    1    3    3
 0.3969499665443694    1    1    4    4
 0.3969499665443694    1    1    5    5
 0.05827662554975987    1    1    6    1
 -0.04318350824723495    1    1    6    2
 0.0142131189540958    1    1    6    3
 0.3643662995729071    1    1    6    6
 -0.1110446026954399    2    1    1    1
 0.01342975374963064    2    1    2    1
 0.006339247680749438    2    1    2    2
 0.01158960359848564    2    1    3    1
 -0.003352579257415803    2    1    3    2
 -0.0110787564761724    2    1    3    3
 -0.004060400566345624    2    1    4    4
 -0.004060400566345624    2    1    5    5
 -0.009642741638010719    2    1    6    1
 0.004704643067593705    2    1    6    2
 -0.003302887517714459    2    1    6    3
 0.003330499987757985    2    1    6    6
 0.3680414576058485    2    2    1    1
 0.006339247680749428    2    2    2    1
 0.4905298931482507    2    2    2    2
 -0.01563899228959282    2    2    3    1
 -0.04698173950446746    2    2    3    2
 0.2228787295113402    2    2    3    3
 0.2703025556160905    2    2    4    4
 0.2703025556160905    2    2    5    5
 -0.006769707915338827    2    2    6    1
 0.1286314897561428    2    2    6    2
 -0.05010667747185595    2    2    6    3
 0.4564834812877287    2    2    6    6
 -0.141442960869515    3    1    1    1
 0.01158960359848564    3    1    2    1
 -0.01563899228959281    3    1    2    2
 0.02284643198442905    3    1    3    1
 -0.0001722029048113766    3    1    3    2
 0.001707727680638679    3    1    3    3
 -0.004710695935237917    3    1    4    4
 -0.004710695935237917    3    1    5    5
 -0.00329541113235653    3    1    6    1
 0.0007860715958910916    3    1    6    2
 0.004598486511735194    3    1    6    3
 -0.01126194618728056    3    1    6    6
 0.01473770813409701    3    2    1    1
 -0.003352579257415802    3    2    2    1
 -0.04698173950446748    3    2    2    2
 -0.0001722029048113784    3    2    3    1
 0.01217678437226774    3    2    3    2
 0.007194350746844797    3    2    3    3
 0.00566571872580697    3    2    4    4
 0.00566571872580697    3    2    5    5
 0.001753977673360891    3    2    6    1
 -0.03346104777317593    3    2    6    2
 0.008389030981025452    3    2    6    3
 -0.04157205524575768    3    2    6    6
 0.3997525447521847    3    3    1    1
 -0.0110787564761724    3    3    2    1
 0.2228787295113403    3    3    2    2
 0.001707727680638684    3    3    3    1
 0.007194350746844838    3    3    3    2
 0.3394669827953835    3    3    3    3
 0.2825444166981406    3    3    4    4
 0.2825444166981406    3    3    5    5
 0.0106184358815409    3    3    6    1
 -0.01338867815836794    3    3    6    2
 0.03552624490905959    3    3    6    3
 0.2411189086714967    3    3    6    6
 0.01005441330528409    4    1    4    1
 0.007349634790898235    4    1    4    2
 0.01023234643568461    4    1    4    3
 -0.006217630568807083    4    1    6    4
 0.007349634790898235    4    2    4    1
 0.02304624936250945    4    2    4    2
 0.01902621442193703    4    2    4    3
 -0.01961028603744312    4    2    6    4
 0.01023234643568461    4    3    4    1
 0.01902621442193703    4    3    4    2
 0.04139930863562507    4    3    4    3
 -0.0140415024985029    4    3    6    4
 0.3969499665443694    4    4    1    1
 -0.004060400566345624    4    4    2    1
 0.2703025556160905    4    4    2    2
 -0.004710695935237917    4    4    3    1
 0.00566571872580697    4    4    3    2
 0.2825444166981406    4    4    3    3
 0.3131245659726231    4    4    4    4
 0.2793744337886092    4    4    5    5
 0.0005660977220030914    4    4    6    1
 -0.01631174605747364    4    4    6    2
 0.001611140020860685    4    4    6    3
 0.2689471898076033    4    4    6    6
 0.01005441330528409    5    1    5    1
 0.007349634790898235    5    1    5    2
 0.01023234643568461    5    1    5    3
 -0.006217630568807082    5    1    6    5
 0.007349634790898235    5    2    5    1
 0.02304624936250945    5    2    5    2
 0.01902621442193703    5    2    5    3
 -0.01961028603744312    5    2    6    5
 0.01023234643568461    5    3    5    1
 0.01902621442193703    5    3    5    2
 0.04139930863562507    5    3    5    3
 -0.0140415024985029    5    3    6    5
 0.01687506609200707    5    4    5    4
 0.3969499665443694    5    5    1    1
 -0.004060400566345624    5    5    2    1
 0.2703025556160905    5    5    2    2
 -0.004710695935237917    5    5    3    1
 0.00566571872580697    5    5    3    2
 0.2825444166981406    5    5    3    3
 0.2793744337886092    5    5    4    4
 0.3131245659726231    5    5    5    5
 0.0005660977220030914    5    5    6    1
 -0.01631174605747364    5    5    6    2
 0.001611140020860685    5    5    6    3
 0.2689471898076033    5    5    6    6
 0.05827662554975988    6    1    1    1
 -0.009642741638010715    6    1    2    1
 -0.006769707915338834    6    1    2    2
 -0.003295411132356525    6    1    3    1
 0.001753977673360889    6    1    3    2
 0.01061843588154089    6    1    3    3
 0.0005660977220030914    6    1    4    4
 0.0005660977220030914    6    1    5    5
 0.009365180987297064    6    1    6    1
 -7.987501452383534e-05    6    1    6    2
 0.004072275565943677    6    1    6    3
 -0.003119651809511678    6    1    6    6
 -0.04318350824723498    6    2    1    1
 0.004704643067593712    6    2    2    1
 0.1286314897561428    6    2    2    2
 0.0007860715958910999    6    2    3    1
 -0.03346104777317593    6    2    3    2
 -0.01338867815836795    6    2    3    3
 -0.01631174605747364    6    2    4    4
 -0.01631174605747364    6    2    5    5
 -7.987501452384207e-05    6    2    6    1
 0.1251796216770098    6    2    6    2
 -0.03045036350348588    6    2    6    3
 0.135124611660886    6    2    6    6
 0.01421311895409583    6    3    1    1
 -0.003302887517714457    6    3    2    1
 -0.05010667747185596    6    3    2    2
 0.004598486511735196    6    3    3    1
 0.008389030981025454    6    3    3    2
 0.03552624490905965    6    3    3    3
 0.001611140020860685    6    3    4    4
 0.001611140020860685    6    3    5    5
 0.004072275565943678    6    3    6    1
 -0.03045036350348585    6    3    6    2
 0.02526407084867688    6    3    6    3
 -0.04276601614113516    6    3    6    6
 -0.006217630568807083    6    4    4    1
 -0.01961028603744312    6    4    4    2
 -0.0140415024985029    6    4    4    3
 0.02004527241607786    6    4    6    4
 -0.006217630568807084    6    5    5    1
 -0.01961028603744313    6    5    5    2
 -0.0140415024985029    6    5    5    3
 0.02004527241607787    6    5    6    5
 0.364366299572907    6    6    1    1
 0.003330499987758001    6    6    2    1
 0.4564834812877285    6    6    2    2
 -0.01126194618728053    6    6    3    1
 -0.04157205524575766    6    6    3    2
 0.2411189086714967    6    6    3    3
 0.2689471898076033    6    6    4    4
 0.2689471898076033    6    6    5    5
 -0.003119651809511683    6    6    6    1
 0.135124611660886    6    6    6    2
 -0.04276601614113523    6    6    6    3
 0.4558616414977785    6    6    6    6
 -4.77439366248376    1    1  0  0
 0.1047053554382773    2    1  0  0
 -1.49945271837472    2    2  0  0
 0.1693683664405451    3    1  0  0
 0.02909594187972165    3    2  0  0
 -1.131650112378609    3    3  0  0
 -1.138741610371953    4    4  0  0
 -1.138741610371953    5    5  0  0
 -0.04003256666708468    6    1  0  0
 -0.05190721421833931    6    2  0  0
 0.0350306518979346    6    3  0  0
 -0.9580141861338222    6    6  0  0
 0.995380044366418  0  0  0  0
