 &FCI NORB=  11,NELEC= 4,MS2=0,
  ORBSYM=1,1,1,1,1,1,1,1,1,1,1,
  ISYM=1,
 &END
 1.646985882236069    1    1    1    1
 -0.09704388082591761    1    1    2    1
 0.3424807462748671    1    1    2    2
 -0.05970417230294351    1    1    3    1
 0.00246840303764214    1    1    3    2
 0.2373969029616798    1    1    3    3
 0.1901159349456565    1    1    4    4
 0.1901159349456566    1    1    5    5
 0.007085639422030147    1    1    6    1
 0.04569321961161885    1    1    6    2
 -0.04328730985048336    1    1    6    3
 0.1894482184055484    1    1    6    6
 -0.1198950536017167    1    1    7    1
 0.04386318918983243    1    1    7    2
 0.1081621727965021    1    1    7    3
 -0.04159498021860212    1    1    7    6
 0.3389162766236572    1    1    7    7
 0.0867724713071933    1    1    8    4
 -0.004770037810579826    1    1    8    5
 0.3754972151173739    1    1    8    8
 0.004770037810579828    1    1    9    4
 0.08677247130719332    1    1    9    5
 0.3754972151173739    1    1    9    9
 0.06137873103096925    1    1   10    1
 -0.06745312830281769    1    1   10    2
 0.007221789447132749    1    1   10    3
 -0.01059714283050905    1    1   10    6
 0.009650604149128016    1    1   10    7
 0.3651042478953911    1    1   10   10
 -0.03447812407333924    1    1   11    1
 -0.006986736007418128    1    1   11    2
 0.008044536188109576    1    1   11    3
 -0.01555632288340848    1    1   11    6
 0.006703184687734415    1    1   11    7
 -0.03932499420287014    1    1   11   10
 0.2994252326223203    1    1   11   11
 -0.0970438808259176    2    1    1    1
 0.009694946308734331    2    1    2    1
 0.005079977429948334    2    1    2    2
 0.004648444669370301    2    1    3    1
 -0.00209445127358018    2    1    3    2
 -0.002962519039363341    2    1    3    3
 -0.0002213528669249415    2    1    4    4
 -0.0002213528669249411    2    1    5    5
 0.0003938941432612144    2    1    6    1
 0.001997844937703604    2    1    6    2
 0.0003132371867141609    2    1    6    3
 0.001080425569277782    2    1    6    6
 0.008758068028202204    2    1    7    1
 -0.001522690151090381    2    1    7    2
 -0.003460572206400913    2    1    7    3
 0.002120452464377975    2    1    7    6
 -0.006788329082618964    2    1    7    7
 -0.000801121371480199    2    1    8    4
 4.403907339800916e-05    2    1    8    5
 -0.003577226444152942    2    1    8    8
 -4.403907339800916e-05    2    1    9    4
 -0.0008011213714801981    2    1    9    5
 -0.003577226444152942    2    1    9    9
 -0.007729567197394124    2    1   10    1
 0.002148763315588542    2    1   10    2
 -0.001548960264540146    2    1   10    3
 0.00104178718502167    2    1   10    6
 -0.001650038718759875    2    1   10    7
 -0.0003177174092209395    2    1   10   10
 0.003690380989826908    2    1   11    1
 -0.002174582678328713    2    1   11    2
 -6.446089772579233e-05    2    1   11    3
 -0.001208062809333315    2    1   11    6
 -0.0007339716021903191    2    1   11    7
 -0.001180464296127853    2    1   11   10
 0.007155879139525949    2    1   11   11
 0.3424807462748672    2    2    1    1
 0.005079977429948327    2    2    2    1
 0.4755885139197341    2    2    2    2
 -0.005944019925235929    2    2    3    1
 -0.05108561113321813    2    2    3    2
 0.1644657459252055    2    2    3    3
 0.1705050350074453    2    2    4    4
 0.1705050350074454    2    2    5    5
 0.006238232739491841    2    2    6    1
 0.08896529972222836    2    2    6    2
 -0.03506430222785931    2    2    6    3
 0.2182663785031705    2    2    6    6
 -0.01164917169366308    2    2    7    1
 0.00965583176010249    2    2    7    2
 0.03724293592429231    2    2    7    3
 0.007153278352730369    2    2    7    6
 0.1893506291873799    2    2    7    7
 0.04938894926400213    2    2    8    4
 -0.002714998799331984    2    2    8    5
 0.2428165992018558    2    2    8    8
 0.002714998799331959    2    2    9    4
 0.04938894926400215    2    2    9    5
 0.2428165992018559    2    2    9    9
 -0.007559367182958819    2    2   10    1
 0.05671256083041298    2    2   10    2
 -0.0328830691915229    2    2   10    3
 0.02441373988700419    2    2   10    6
 -0.01511083004984005    2    2   10    7
 0.3396308916890472    2    2   10   10
 9.029095075795452e-05    2    2   11    1
 -0.09112487591492284    2    2   11    2
 0.01787864214881756    2    2   11    3
 -0.06961887774839495    2    2   11    6
 -0.005746524489683912    2    2   11    7
 -0.06008002291698234    2    2   11   10
 0.5484140704329532    2    2   11   11
 -0.05970417230294352    3    1    1    1
 0.004648444669370302    3    1    2    1
 -0.005944019925235927    3    1    2    2
 0.00419412630316006    3    1    3    1
 0.0007095324685437121    3    1    3    2
 0.001624596859498384    3    1    3    3
 0.0001370726250943353    3    1    4    4
 0.0001370726250943356    3    1    5    5
 -0.001398877049883891    3    1    6    1
 -0.001817523912087781    3    1    6    2
 0.0001854959233535653    3    1    6    3
 -0.001189289750473724    3    1    6    6
 0.008010573394652727    3    1    7    1
 -0.0004907032039379401    3    1    7    2
 0.0008536108990669472    3    1    7    3
 -0.0007389421341454438    3    1    7    6
 0.00156162119328979    3    1    7    7
 -0.0002174110257287958    3    1    8    4
 1.195147259886019e-05    3    1    8    5
 -0.001440002374515585    3    1    8    8
 -1.195147259886015e-05    3    1    9    4
 -0.0002174110257287952    3    1    9    5
 -0.001440002374515585    3    1    9    9
 -0.001284112271708998    3    1   10    1
 0.0009240826925001384    3    1   10    2
 0.001304775789079735    3    1   10    3
 0.0002096322785099755    3    1   10    6
 0.001404341467871758    3    1   10    7
 -0.003062346229662238    3    1   10   10
 0.001945580749812352    3    1   11    1
 0.0004484963153375113    3    1   11    2
 -0.0002799226172091663    3    1   11    3
 0.0006832146950778781    3    1   11    6
 -0.000128365431141807    3    1   11    7
 0.001690344970454143    3    1   11   10
 -0.005255163669924996    3    1   11   11
 0.002468403037642125    3    2    1    1
 -0.002094451273580178    3    2    2    1
 -0.05108561113321813    3    2    2    2
 0.0007095324685437119    3    2    3    1
 0.01139737242161158    3    2    3    2
 0.007195209293948144    3    2    3    3
 0.001321747103677182    3    2    4    4
 0.001321747103677183    3    2    5    5
 -0.001302870718253145    3    2    6    1
 -0.01491415086361687    3    2    6    2
 0.00238967020045031    3    2    6    3
 -0.01297707252643995    3    2    6    6
 0.001041434512972473    3    2    7    1
 0.001744891070882002    3    2    7    2
 0.002076636455274076    3    2    7    3
 -0.004928986293466333    3    2    7    6
 0.007944919746169217    3    2    7    7
 5.404167816197618e-05    3    2    8    4
 -2.970767621302445e-06    3    2    8    5
 0.0008632502936355764    3    2    8    8
 2.970767621302349e-06    3    2    9    4
 5.404167816197674e-05    3    2    9    5
 0.0008632502936355763    3    2    9    9
 0.002049504063200549    3    2   10    1
 -0.01874341568511962    3    2   10    2
 0.007302780996274552    3    2   10    3
 -0.003427565907139092    3    2   10    6
 0.00306482551767318    3    2   10    7
 -0.02032577757038165    3    2   10   10
 -0.0003665998338513565    3    2   11    1
 0.01786258458368573    3    2   11    2
 -0.00358201145923195    3    2   11    3
 0.01334534148391315    3    2   11    6
 0.001359511405137708    3    2   11    7
 0.009301382573979434    3    2   11   10
 -0.0702912334281119    3    2   11   11
 0.2373969029616798    3    3    1    1
 -0.002962519039363338    3    3    2    1
 0.1644657459252055    3    3    2    2
 0.001624596859498382    3    3    3    1
 0.00719520929394814    3    3    3    2
 0.210397619740795    3    3    3    3
 0.1552381681240264    3    3    4    4
 0.1552381681240265    3    3    5    5
 -0.002157976414138606    3    3    6    1
 0.00866694421578482    3    3    6    2
 -0.007710541777080158    3    3    6    3
 0.1322031016796135    3    3    6    6
 0.001735226728532182    3    3    7    1
 0.01183053384469302    3    3    7    2
 0.03571121400457875    3    3    7    3
 -0.0257490358145049    3    3    7    6
 0.2141625107835724    3    3    7    7
 0.03002763413193728    3    3    8    4
 -0.001650672707759144    3    3    8    5
 0.1920975024050643    3    3    8    8
 0.001650672707759128    3    3    9    4
 0.03002763413193733    3    3    9    5
 0.1920975024050643    3    3    9    9
 0.004971000505383235    3    3   10    1
 -0.01345560000703105    3    3   10    2
 0.02080647348097267    3    3   10    3
 0.004155444072784018    3    3   10    6
 0.01420496390303188    3    3   10    7
 0.1858796213996889    3    3   10   10
 -0.0007541245912841071    3    3   11    1
 -0.006254052673647365    3    3   11    2
 0.004873941096048624    3    3   11    3
 -0.002885469156754023    3    3   11    6
 0.000461004047122884    3    3   11    7
 -0.00418954816963803    3    3   11   10
 0.1585907477565514    3    3   11   11
 0.0003872209384502074    4    1    4    1
 0.0008396688569737688    4    1    4    2
 0.0009568452351473019    4    1    4    3
 -0.000548348887580501    4    1    6    4
 0.0004272372833527168    4    1    7    4
 0.001920303974409272    4    1    8    1
 0.001557308337058643    4    1    8    2
 0.001193051552424772    4    1    8    3
 -0.000361673484869011    4    1    8    6
 0.002158781047636391    4    1    8    7
 0.0001055625410657125    4    1    9    1
 8.560802220559944e-05    4    1    9    2
 6.558417582565012e-05    4    1    9    3
 -1.988183777550592e-05    4    1    9    6
 0.0001186720519406841    4    1    9    7
 -0.000812414739385497    4    1   10    4
 -0.001910426696788043    4    1   10    8
 -0.0001050195694641315    4    1   10    9
 6.888364769988838e-06    4    1   11    4
 0.0002687826101861721    4    1   11    8
 1.47754603977503e-05    4    1   11    9
 0.0008396688569737687    4    2    4    1
 0.008653772942651163    4    2    4    2
 0.008387285280661795    4    2    4    3
 -0.008559296198450849    4    2    6    4
 -0.003273082955640414    4    2    7    4
 0.003305849842581288    4    2    8    1
 0.009529121734203255    4    2    8    2
 0.003881337493122822    4    2    8    3
 0.00036712815216107    4    2    8    6
 0.0102274832075779    4    2    8    7
 0.0001817284734162581    4    2    9    1
 0.0005238328503155126    4    2    9    2
 0.0002133640579657239    4    2    9    3
 2.018169058406911e-05    4    2    9    6
 0.0005622230284822294    4    2    9    7
 -0.005797757632757927    4    2   10    4
 -0.01162507269399946    4    2   10    8
 -0.0006390510200499528    4    2   10    9
 -5.469526187636778e-05    4    2   11    4
 0.002476478963940352    4    2   11    8
 0.0001361364741276206    4    2   11    9
 0.0009568452351473019    4    3    4    1
 0.008387285280661794    4    3    4    2
 0.02213863326378005    4    3    4    3
 -0.00891784531910875    4    3    6    4
 -0.006573845180413522    4    3    7    4
 0.003838459565302691    4    3    8    1
 0.007292485245930407    4    3    8    2
 0.006548342455807426    4    3    8    3
 -0.003095781939158779    4    3    8    6
 0.01951020329993924    4    3    8    7
 0.0002110069816503895    4    3    9    1
 0.0004008809456749947    4    3    9    2
 0.0003599740867151871    4    3    9    3
 -0.0001701806653727673    4    3    9    6
 0.001072510740224779    4    3    9    7
 -0.004720790610820986    4    3   10    4
 -0.009856521717834174    4    3   10    8
 -0.0005418306124810499    4    3   10    9
 -0.002400473419920818    4    3   11    4
 0.0002659748773035194    4    3   11    8
 1.462111430375981e-05    4    3   11    9
 0.1901159349456565    4    4    1    1
 -0.0002213528669249417    4    4    2    1
 0.1705050350074453    4    4    2    2
 0.0001370726250943387    4    4    3    1
 0.001321747103677179    4    4    3    2
 0.1552381681240264    4    4    3    3
 0.1605408016162247    4    4    4    4
 0.1414954403950144    4    4    5    5
 -0.0001769217239142142    4    4    6    1
 0.005238024818517851    4    4    6    2
 -0.01229467382311088    4    4    6    3
 0.1384725532382244    4    4    6    6
 -0.000556988402011336    4    4    7    1
 0.005312229962247684    4    4    7    2
 0.01793769167943865    4    4    7    3
 -0.002574739001376045    4    4    7    6
 0.1635169368825574    4    4    7    7
 0.02070848993367974    4    4    8    4
 -0.001131755238103213    4    4    8    5
 0.1784070998546967    4    4    8    8
 0.001138382697825444    4    4    9    4
 0.02058792882254762    4    4    9    5
 0.0007707281947775582    4    4    9    8
 0.164429036285319    4    4    9    9
 -6.627990122894776e-05    4    4   10    1
 -0.01022457272236139    4    4   10    2
 -0.0004036911911188196    4    4   10    3
 0.006111798877425905    4    4   10    6
 -0.0003166910603365474    4    4   10    7
 0.173558473265667    4    4   10   10
 -6.570310531114472e-05    4    4   11    1
 -0.001589072633683758    4    4   11    2
 -0.001088864491544957    4    4   11    3
 -0.002885534912210936    4    4   11    6
 0.0002838833558512643    4    4   11    7
 -0.003911805083102947    4    4   11   10
 0.1646833274820739    4    4   11   11
 0.0003872209384502063    5    1    5    1
 0.0008396688569737676    5    1    5    2
 0.000956845235147301    5    1    5    3
 -0.0005483488875805007    5    1    6    5
 0.0004272372833527158    5    1    7    5
 -0.0001055625410657125    5    1    8    1
 -8.560802220559973e-05    5    1    8    2
 -6.558417582565033e-05    5    1    8    3
 1.988183777550594e-05    5    1    8    6
 -0.0001186720519406837    5    1    8    7
 0.001920303974409269    5    1    9    1
 0.001557308337058642    5    1    9    2
 0.001193051552424771    5    1    9    3
 -0.0003616734848690107    5    1    9    6
 0.002158781047636387    5    1    9    7
 -0.0008124147393854959    5    1   10    5
 0.0001050195694641309    5    1   10    8
 -0.001910426696788042    5    1   10    9
 6.888364769988552e-06    5    1   11    5
 -1.477546039775119e-05    5    1   11    8
 0.0002687826101861713    5    1   11    9
 0.0008396688569737676    5    2    5    1
 0.008653772942651161    5    2    5    2
 0.008387285280661797    5    2    5    3
 -0.008559296198450852    5    2    6    5
 -0.003273082955640418    5    2    7    5
 -0.000181728473416257    5    2    8    1
 -0.0005238328503155092    5    2    8    2
 -0.0002133640579657245    5    2    8    3
 -2.01816905840663e-05    5    2    8    6
 -0.0005622230284822233    5    2    8    7
 0.003305849842581289    5    2    9    1
 0.009529121734203257    5    2    9    2
 0.003881337493122824    5    2    9    3
 0.0003671281521610655    5    2    9    6
 0.01022748320757791    5    2    9    7
 -0.005797757632757924    5    2   10    5
 0.0006390510200499473    5    2   10    8
 -0.01162507269399946    5    2   10    9
 -5.469526187637002e-05    5    2   11    5
 -0.0001361364741276178    5    2   11    8
 0.002476478963940349    5    2   11    9
 0.000956845235147301    5    3    5    1
 0.008387285280661797    5    3    5    2
 0.02213863326378006    5    3    5    3
 -0.008917845319108756    5    3    6    5
 -0.006573845180413537    5    3    7    5
 -0.0002110069816503878    5    3    8    1
 -0.0004008809456749924    5    3    8    2
 -0.000359974086715188    5    3    8    3
 0.0001701806653727693    5    3    8    6
 -0.001072510740224763    5    3    8    7
 0.00383845956530269    5    3    9    1
 0.007292485245930413    5    3    9    2
 0.006548342455807439    5    3    9    3
 -0.003095781939158783    5    3    9    6
 0.01951020329993924    5    3    9    7
 -0.004720790610820983    5    3   10    5
 0.0005418306124810434    5    3   10    8
 -0.009856521717834179    5    3   10    9
 -0.002400473419920819    5    3   11    5
 -1.462111430376017e-05    5    3   11    8
 0.0002659748773035176    5    3   11    9
 0.009522680610605162    5    4    5    4
 -3.31372986110612e-06    5    4    8    4
 6.028055556608549e-05    5    4    8    5
 -0.0007707281947774972    5    4    8    8
 6.02805555660945e-05    5    4    9    4
 3.313729861113327e-06    5    4    9    5
 0.006989031784688825    5    4    9    8
 0.0007707281947776834    5    4    9    9
 0.1901159349456566    5    5    1    1
 -0.0002213528669249436    5    5    2    1
 0.1705050350074454    5    5    2    2
 0.0001370726250943353    5    5    3    1
 0.001321747103677183    5    5    3    2
 0.1552381681240265    5    5    3    3
 0.1414954403950145    5    5    4    4
 0.1605408016162249    5    5    5    5
 -0.0001769217239142101    5    5    6    1
 0.005238024818517851    5    5    6    2
 -0.0122946738231109    5    5    6    3
 0.1384725532382245    5    5    6    6
 -0.000556988402011333    5    5    7    1
 0.00531222996224766    5    5    7    2
 0.01793769167943868    5    5    7    3
 -0.002574739001376072    5    5    7    6
 0.1635169368825574    5    5    7    7
 0.02058792882254755    5    5    8    4
 -0.001138382697825439    5    5    8    5
 0.1644290362853191    5    5    8    8
 0.001131755238103202    5    5    9    4
 0.02070848993367977    5    5    9    5
 -0.0007707281947775574    5    5    9    8
 0.1784070998546967    5    5    9    9
 -6.627990122893961e-05    5    5   10    1
 -0.01022457272236138    5    5   10    2
 -0.0004036911911188314    5    5   10    3
 0.00611179887742593    5    5   10    6
 -0.0003166910603364742    5    5   10    7
 0.173558473265667    5    5   10   10
 -6.570310531113486e-05    5    5   11    1
 -0.001589072633683726    5    5   11    2
 -0.001088864491544972    5    5   11    3
 -0.002885534912210906    5    5   11    6
 0.0002838833558512792    5    5   11    7
 -0.003911805083102933    5    5   11   10
 0.1646833274820741    5    5   11   11
 0.007085639422030126    6    1    1    1
 0.0003938941432612134    6    1    2    1
 0.006238232739491839    6    1    2    2
 -0.001398877049883891    6    1    3    1
 -0.001302870718253144    6    1    3    2
 -0.002157976414138608    6    1    3    3
 -0.0001769217239142106    6    1    4    4
 -0.0001769217239142106    6    1    5    5
 0.001320514557117139    6    1    6    1
 0.002094396612912944    6    1    6    2
 -6.240624717794468e-05    6    1    6    3
 0.001393388533306074    6    1    6    6
 -0.002754586956437333    6    1    7    1
 -0.0002137042506903593    6    1    7    2
 -0.001713640346896605    6    1    7    3
 0.001349072242112066    6    1    7    6
 -0.003533221200730845    6    1    7    7
 -0.0001386007154279987    6    1    8    4
 7.619129007221968e-06    6    1    8    5
 -0.0002684825170326539    6    1    8    8
 -7.619129007221997e-06    6    1    9    4
 -0.0001386007154279988    6    1    9    5
 -0.000268482517032654    6    1    9    9
 -0.002317842654211261    6    1   10    1
 6.475146557677839e-05    6    1   10    2
 -0.001394366971215611    6    1   10    3
 0.0001125007967876057    6    1   10    6
 -0.001541797275091763    6    1   10    7
 0.002160991488838155    6    1   10   10
 1.813390978108642e-05    6    1   11    1
 -0.001102119248270674    6    1   11    2
 0.0001792359325224376    6    1   11    3
 -0.0009144162114889946    6    1   11    6
 -0.0001758355398505305    6    1   11    7
 -0.001678290245860699    6    1   11   10
 0.006422700152844896    6    1   11   11
 0.04569321961161887    6    2    1    1
 0.0019978449377036    6    2    2    1
 0.08896529972222833    6    2    2    2
 -0.001817523912087781    6    2    3    1
 -0.01491415086361688    6    2    3    2
 0.008666944215784806    6    2    3    3
 0.005238024818517858    6    2    4    4
 0.005238024818517856    6    2    5    5
 0.002094396612912946    6    2    6    1
 0.03063910723520982    6    2    6    2
 -0.007023973133682191    6    2    6    3
 0.01604186826853992    6    2    6    6
 -0.003280044335280614    6    2    7    1
 0.002777529931951235    6    2    7    2
 0.004061603737825618    6    2    7    3
 -0.001280622348139469    6    2    7    6
 0.01014909477338423    6    2    7    7
 0.007672429728528714    6    2    8    4
 -0.000421767172846039    6    2    8    5
 0.02057244764416137    6    2    8    8
 0.0004217671728460402    6    2    9    4
 0.007672429728528712    6    2    9    5
 0.02057244764416137    6    2    9    9
 -0.002493832760706265    6    2   10    1
 0.01765801440539243    6    2   10    2
 -0.0064262506318853    6    2   10    3
 0.006920341274184558    6    2   10    6
 -0.002540821044027994    6    2   10    7
 0.04345205023864217    6    2   10   10
 0.0001176465586816375    6    2   11    1
 -0.03896637096136726    6    2   11    2
 0.008830141650024418    6    2   11    3
 -0.02153803011757074    6    2   11    6
 -0.001001808625916534    6    2   11    7
 -0.02416677721130038    6    2   11   10
 0.1161908377819797    6    2   11   11
 -0.04328730985048331    6    3    1    1
 0.000313237186714163    6    3    2    1
 -0.03506430222785933    6    3    2    2
 0.000185495923353564    6    3    3    1
 0.002389670200450314    6    3    3    2
 -0.007710541777080142    6    3    3    3
 -0.0122946738231109    6    3    4    4
 -0.0122946738231109    6    3    5    5
 -6.240624717794375e-05    6    3    6    1
 -0.007023973133682193    6    3    6    2
 0.00902537138803497    6    3    6    3
 -0.01137917147673399    6    3    6    6
 0.0006952682514500556    6    3    7    1
 -0.002934043207898722    6    3    7    2
 -0.01218526589941535    6    3    7    3
 -0.0004170521506678787    6    3    7    6
 -0.01943348313277254    6    3    7    7
 -0.008678043142615216    6    3    8    4
 0.0004770475392543786    6    3    8    5
 -0.02548358126567846    6    3    8    8
 -0.0004770475392543792    6    3    9    4
 -0.008678043142615216    6    3    9    5
 -0.02548358126567846    6    3    9    9
 -0.0004373695530554302    6    3   10    1
 0.0006917566798947755    6    3   10    2
 0.002830588393707072    6    3   10    3
 -0.002411759934741311    6    3   10    6
 -0.0002337628797185961    6    3   10    7
 -0.0280980376168135    6    3   10   10
 0.0001506101144555437    6    3   11    1
 0.008600686436325651    6    3   11    2
 -0.0006057001746854772    6    3   11    3
 0.004955106066959826    6    3   11    6
 -0.0005157868021453972    6    3   11    7
 0.006383055683224106    6    3   11   10
 -0.0382198678383332    6    3   11   11
 -0.0005483488875805011    6    4    4    1
 -0.008559296198450847    6    4    4    2
 -0.008917845319108754    6    4    4    3
 0.01461504944849903    6    4    6    4
 0.00614550026325597    6    4    7    4
 -0.002191192530066488    6    4    8    1
 -0.005597216508597629    6    4    8    2
 -0.003703323634530889    6    4    8    3
 -0.002494135930150316    6    4    8    6
 -0.01007594747436863    6    4    8    7
 -0.0001204537690493426    6    4    9    1
 -0.0003076889937304273    6    4    9    2
 -0.0002035783180473054    6    4    9    3
 -0.0001371071091132647    6    4    9    6
 -0.0005538928384326316    6    4    9    7
 0.005073985573656731    6    4   10    4
 0.00907297349238646    6    4   10    8
 0.0004987575663237445    6    4   10    9
 0.002053064157894068    6    4   11    4
 -0.001708886898071122    6    4   11    8
 -9.394056657607371e-05    6    4   11    9
 -0.0005483488875805005    6    5    5    1
 -0.008559296198450854    6    5    5    2
 -0.008917845319108757    6    5    5    3
 0.01461504944849904    6    5    6    5
 0.006145500263255979    6    5    7    5
 0.0001204537690493419    6    5    8    1
 0.0003076889937304247    6    5    8    2
 0.0002035783180473033    6    5    8    3
 0.0001371071091132633    6    5    8    6
 0.0005538928384326297    6    5    8    7
 -0.002191192530066488    6    5    9    1
 -0.005597216508597636    6    5    9    2
 -0.003703323634530895    6    5    9    3
 -0.002494135930150307    6    5    9    6
 -0.01007594747436863    6    5    9    7
 0.00507398557365673    6    5   10    5
 -0.0004987575663237392    6    5   10    8
 0.009072973492386463    6    5   10    9
 0.00205306415789407    6    5   11    5
 9.394056657607296e-05    6    5   11    8
 -0.001708886898071122    6    5   11    9
 0.1894482184055483    6    6    1    1
 0.001080425569277777    6    6    2    1
 0.2182663785031705    6    6    2    2
 -0.001189289750473726    6    6    3    1
 -0.01297707252643994    6    6    3    2
 0.1322031016796135    6    6    3    3
 0.1384725532382244    6    6    4    4
 0.1384725532382244    6    6    5    5
 0.001393388533306073    6    6    6    1
 0.01604186826853992    6    6    6    2
 -0.01137917147673398    6    6    6    3
 0.1619269446147787    6    6    6    6
 -0.002706490102845674    6    6    7    1
 0.001619522466277709    6    6    7    2
 0.01744886416215733    6    6    7    3
 0.007416064760872495    6    6    7    6
 0.144482566314156    6    6    7    7
 0.01803538626979271    6    6    8    4
 -0.0009914374125724688    6    6    8    5
 0.15964160833746    6    6    8    8
 0.0009914374125724538    6    6    9    4
 0.01803538626979275    6    6    9    5
 0.15964160833746    6    6    9    9
 -0.00155319181127408    6    6   10    1
 0.0128871403562555    6    6   10    2
 -0.009720007760224216    6    6   10    3
 0.004008403593160941    6    6   10    6
 -0.003888211992014208    6    6   10    7
 0.1890004476654872    6    6   10   10
 9.939278877484604e-05    6    6   11    1
 -0.01433178128777888    6    6   11    2
 0.001797715314098618    6    6   11    3
 -0.01637716087394558    6    6   11    6
 -0.001641473946851498    6    6   11    7
 -0.009341301081166584    6    6   11   10
 0.2325767008080411    6    6   11   11
 -0.1198950536017168    7    1    1    1
 0.008758068028202214    7    1    2    1
 -0.01164917169366308    7    1    2    2
 0.008010573394652736    7    1    3    1
 0.00104143451297247    7    1    3    2
 0.001735226728532166    7    1    3    3
 -0.000556988402011332    7    1    4    4
 -0.0005569884020113316    7    1    5    5
 -0.002754586956437334    7    1    6    1
 -0.003280044335280609    7    1    6    2
 0.0006952682514500627    7    1    6    3
 -0.002706490102845665    7    1    6    6
 0.01558817999715093    7    1    7    1
 -0.001205540678175956    7    1    7    2
 0.000535823920999498    7    1    7    3
 -0.001031719922290893    7    1    7    6
 0.000979338023847331    7    1    7    7
 -0.001241868588313004    7    1    8    4
 6.826773552470401e-05    7    1    8    5
 -0.005096148446481408    7    1    8    8
 -6.826773552470405e-05    7    1    9    4
 -0.001241868588313003    7    1    9    5
 -0.005096148446481409    7    1    9    9
 -0.002167037129758965    7    1   10    1
 0.002669445841494858    7    1   10    2
 0.002171492657858911    7    1   10    3
 0.0005689055299014031    7    1   10    6
 0.00244459382796674    7    1   10    7
 -0.007513695096640664    7    1   10   10
 0.003555449857197401    7    1   11    1
 0.0003569501597043777    7    1   11    2
 -0.0004211000371571095    7    1   11    3
 0.001023101907641348    7    1   11    6
 -0.0002612523679767468    7    1   11    7
 0.00313353666022158    7    1   11   10
 -0.009633697181106054    7    1   11   11
 0.04386318918983245    7    2    1    1
 -0.001522690151090382    7    2    2    1
 0.009655831760102507    7    2    2    2
 -0.0004907032039379415    7    2    3    1
 0.001744891070881997    7    2    3    2
 0.01183053384469305    7    2    3    3
 0.005312229962247667    7    2    4    4
 0.005312229962247664    7    2    5    5
 -0.0002137042506903559    7    2    6    1
 0.002777529931951254    7    2    6    2
 -0.002934043207898745    7    2    6    3
 0.001619522466277763    7    2    6    6
 -0.00120554067817595    7    2    7    1
 0.004170599231347534    7    2    7    2
 0.008796910735251975    7    2    7    3
 -0.00505677419659221    7    2    7    6
 0.01818488332847451    7    2    7    7
 0.007541694431846926    7    2    8    4
 -0.0004145804199628369    7    2    8    5
 0.01995940401511281    7    2    8    8
 0.0004145804199628381    7    2    9    4
 0.007541694431846924    7    2    9    5
 0.01995940401511281    7    2    9    9
 0.001059331917984271    7    2   10    1
 -0.007736770107837609    7    2   10    2
 0.00183590873223743    7    2   10    3
 -8.335418390085215e-05    7    2   10    6
 0.0004665889523896511    7    2   10    7
 0.01457473375267961    7    2   10   10
 -0.0005093034502972073    7    2   11    1
 -0.001811019769532802    7    2   11    2
 0.0007529484275919316    7    2   11    3
 5.998543161409018e-05    7    2   11    6
 0.0004282395807286569    7    2   11    7
 -0.003349690507832471    7    2   11   10
 0.00537099235854705    7    2   11   11
 0.1081621727965023    7    3    1    1
 -0.003460572206400915    7    3    2    1
 0.03724293592429227    7    3    2    2
 0.0008536108990669427    7    3    3    1
 0.00207663645527408    7    3    3    2
 0.03571121400457875    7    3    3    3
 0.01793769167943866    7    3    4    4
 0.01793769167943866    7    3    5    5
 -0.001713640346896601    7    3    6    1
 0.004061603737825616    7    3    6    2
 -0.01218526589941536    7    3    6    3
 0.01744886416215735    7    3    6    6
 0.0005358239209994981    7    3    7    1
 0.008796910735252007    7    3    7    2
 0.03775764157000899    7    3    7    3
 -0.0110166821145751    7    3    7    6
 0.06284687440213249    7    3    7    7
 0.02090136324283655    7    3    8    4
 -0.001148985288295336    7    3    8    5
 0.05468493013578536    7    3    8    8
 0.001148985288295337    7    3    9    4
 0.02090136324283654    7    3    9    5
 0.05468493013578537    7    3    9    9
 0.005077921847415335    7    3   10    1
 -0.008336428195631695    7    3   10    2
 0.007904883888130631    7    3   10    3