 &FCI NORB=  11,NELEC= 4,MS2=0,
  ORBSYM=1,1,1,1,1,1,1,1,1,1,1,
  ISYM=1,
 &END
 1.646365189727984    1    1    1    1
 -0.09494210327300558    1    1    2    1
 0.3431778296828645    1    1    2    2
 -0.06245130335311003    1    1    3    1
 0.004160563168004516    1    1    3    2
 0.2357222009005103    1    1    3    3
 0.1895820086376905    1    1    4    4
 0.1895820086376905    1    1    5    5
 0.00660757537412911    1    1    6    1
 0.04834804963635671    1    1    6    2
 -0.0409430538450669    1    1    6    3
 0.1892744635361003    1    1    6    6
 -0.1228351317090707    1    1    7    1
 0.04024592950086162    1    1    7    2
 0.1089478543956074    1    1    7    3
 -0.04077871994201283    1    1    7    6
 0.3425855746516527    1    1    7    7
 0.05718000210102022    1    1    8    4
 0.06467683892653286    1    1    8    5
 0.37601789808689    1    1    8    8
 -0.06467683892653286    1    1    9    4
 0.05718000210102022    1    1    9    5
 0.3760178980868904    1    1    9    9
 0.0591836022572815    1    1   10    1
 -0.0677857509775765    1    1   10    2
 0.004903755315560404    1    1   10    3
 -0.0108362012479321    1    1   10    6
 0.009201127974394907    1    1   10    7
 0.3629375844452177    1    1   10   10
 -0.03424518919783013    1    1   11    1
 -0.006721739218804115    1    1   11    2
 0.007703374865815913    1    1   11    3
 -0.01564656313094469    1    1   11    6
 0.006611649095121241    1    1   11    7
 -0.03935720994063503    1    1   11   10
 0.2993097041704426    1    1   11   11
 -0.09494210327300558    2    1    1    1
 0.009480331718273465    2    1    2    1
 0.005652166423724465    2    1    2    2
 0.004733026324284051    2    1    3    1
 -0.001813724983269423    2    1    3    2
 -0.003207694263474237    2    1    3    3
 -0.0002220006676094865    2    1    4    4
 -0.0002220006676094864    2    1    5    5
 0.0005607747417553272    2    1    6    1
 0.00207766791939892    2    1    6    2
 0.0003495695613860847    2    1    6    3
 0.001198062047744377    2    1    6    6
 0.008619681961944093    2    1    7    1
 -0.001257088346602197    2    1    7    2
 -0.00363983370167887    2    1    7    3
 0.002228156595937611    2    1    7    6
 -0.007180463075222357    2    1    7    7
 -0.0005221661651613728    2    1    8    4
 -0.0005906270674380555    2    1    8    5
 -0.003546931423806813    2    1    8    8
 0.0005906270674380552    2    1    9    4
 -0.000522166165161372    2    1    9    5
 -0.003546931423806817    2    1    9    9
 -0.007626229545054534    2    1   10    1
 0.002298312968423225    2    1   10    2
 -0.001620138535004799    2    1   10    3
 0.001089118676376121    2    1   10    6
 -0.001801042412792366    2    1   10    7
 -2.836014618227684e-05    2    1   10   10
 0.003611082884150576    2    1   11    1
 -0.002188864684141675    2    1   11    2
 -0.0001123961185896248    2    1   11    3
 -0.001285853615374194    2    1   11    6
 -0.0007601160436144999    2    1   11    7
 -0.001354740017480231    2    1   11   10
 0.007636798884082194    2    1   11   11
 0.3431778296828644    2    2    1    1
 0.005652166423724465    2    2    2    1
 0.4768456535629123    2    2    2    2
 -0.005814905306660637    2    2    3    1
 -0.04087264520288444    2    2    3    2
 0.1604696860197157    2    2    3    3
 0.170270117998436    2    2    4    4
 0.1702701179984359    2    2    5    5
 0.006372010131924784    2    2    6    1
 0.08955781538450519    2    2    6    2
 -0.03201036010895068    2    2    6    3
 0.2186481945928102    2    2    6    6
 -0.01187339467872384    2    2    7    1
 0.01141258793980145    2    2    7    2
 0.03685456328761961    2    2    7    3
 0.008115103896201381    2    2    7    6
 0.1901459203199946    2    2    7    7
 0.03269185939175009    2    2    8    4
 0.03697807006641146    2    2    8    5
 0.2434592310509273    2    2    8    8
 -0.03697807006641147    2    2    9    4
 0.03269185939175008    2    2    9    5
 0.2434592310509277    2    2    9    9
 -0.007619219700527908    2    2   10    1
 0.05990239064978973    2    2   10    2
 -0.0316819027608988    2    2   10    3
 0.02502371110271833    2    2   10    6
 -0.01492940752836654    2    2   10    7
 0.3421340788922358    2    2   10   10
 9.820943891082177e-05    2    2   11    1
 -0.08979093701191179    2    2   11    2
 0.01507965508796382    2    2   11    3
 -0.07011998060228522    2    2   11    6
 -0.006421730073153704    2    2   11    7
 -0.06204668271706613    2    2   11   10
 0.5482718882147803    2    2   11   11
 -0.06245130335311001    3    1    1    1
 0.004733026324284051    3    1    2    1
 -0.005814905306660641    3    1    2    2
 0.004432338336369485    3    1    3    1
 0.0003742946554962056    3    1    3    2
 0.001558022744209759    3    1    3    3
 0.0001351705671369622    3    1    4    4
 0.0001351705671369622    3    1    5    5
 -0.001344813478738177    3    1    6    1
 -0.001754420814133779    3    1    6    2
 0.0001493458904142447    3    1    6    3
 -0.001167333331781002    3    1    6    6
 0.008393406234159947    3    1    7    1
 -0.0006694824488194057    3    1    7    2
 0.0007118425635130977    3    1    7    3
 -0.0006811073803051871    3    1    7    6
 0.001314860519029501    3    1    7    7
 -0.0001594723149272762    3    1    8    4
 -0.000180380637404851    3    1    8    5
 -0.00156578562091826    3    1    8    8
 0.0001803806374048508    3    1    9    4
 -0.0001594723149272758    3    1    9    5
 -0.001565785620918262    3    1    9    9
 -0.001436260139186997    3    1   10    1
 0.0008722267352396786    3    1   10    2
 0.001282774722218117    3    1   10    3
 0.0002299773027434733    3    1   10    6
 0.00135840664923721    3    1   10    7
 -0.003038702266617357    3    1   10   10
 0.002038184947691072    3    1   11    1
 0.0003643921698760919    3    1   11    2
 -0.000270250928201128    3    1   11    3
 0.0006494721296927841    3    1   11    6
 -0.0001555428621470742    3    1   11    7
 0.001652539777884233    3    1   11   10
 -0.005020138602231038    3    1   11   11
 0.004160563168004489    3    2    1    1
 -0.001813724983269423    3    2    2    1
 -0.04087264520288443    3    2    2    2
 0.0003742946554962056    3    2    3    1
 0.007686963877098154    3    2    3    2
 0.005335487512977786    3    2    3    3
 0.001553970517233202    3    2    4    4
 0.001553970517233201    3    2    5    5
 -0.0009909330575774535    3    2    6    1
 -0.01211792579661116    3    2    6    2
 0.001256536143866173    3    2    6    3
 -0.01025816996764874    3    2    6    6
 0.0005517454922561248    3    2    7    1
 0.0009816879470347646    3    2    7    2
 0.001597787682388584    3    2    7    3
 -0.003592961961302565    3    2    7    6
 0.005961982870959864    3    2    7    7
 0.0002450425321027779    3    2    8    4
 0.0002771699159954797    3    2    8    5
 0.001676529821075078    3    2    8    8
 -0.00027716991599548    3    2    9    4
 0.000245042532102778    3    2    9    5
 0.001676529821075079    3    2    9    9
 0.001476774495244223    3    2   10    1
 -0.01669766057814468    3    2   10    2
 0.004758043415130743    3    2   10    3
 -0.002842128239638184    3    2   10    6
 0.001687950065554277    3    2   10    7
 -0.01631746815496439    3    2   10   10
 -0.0003184846217809074    3    2   11    1
 0.0148833699561535    3    2   11    2
 -0.002749912044395549    3    2   11    3
 0.01115677994913523    3    2   11    6
 0.001213310174403937    3    2   11    7
 0.007790291932237002    3    2   11   10
 -0.05718144209242247    3    2   11   11
 0.2357222009005102    3    3    1    1
 -0.003207694263474238    3    3    2    1
 0.1604696860197156    3    3    2    2
 0.001558022744209759    3    3    3    1
 0.005335487512977788    3    3    3    2
 0.2099521650736851    3    3    3    3
 0.1548277037332561    3    3    4    4
 0.1548277037332561    3    3    5    5
 -0.002211718551087551    3    3    6    1
 0.008364526291481419    3    3    6    2
 -0.006761688472555546    3    3    6    3
 0.1308634936731919    3    3    6    6
 0.001769074887277974    3    3    7    1
 0.009782857486555538    3    3    7    2
 0.03556956206428646    3    3    7    3
 -0.02551050333981681    3    3    7    6
 0.2145885058369385    3    3    7    7
 0.01959880800126727    3    3    8    4
 0.02216839632168169    3    3    8    5
 0.1913642666716888    3    3    8    8
 -0.02216839632168169    3    3    9    4
 0.0195988080012673    3    3    9    5
 0.1913642666716889    3    3    9    9
 0.004932601184501787    3    3   10    1
 -0.01561362416616665    3    3   10    2
 0.02052499099676795    3    3   10    3
 0.003851138240867022    3    3   10    6
 0.01421066603561084    3    3   10    7
 0.1833772203759816    3    3   10   10
 -0.0007635679747818668    3    3   11    1
 -0.005279998651866498    3    3   11    2
 0.004416138369834771    3    3   11    3
 -0.002083441781873053    3    3   11    6
 0.0004265417313632167    3    3   11    7
 -0.003659303743065114    3    3   11   10
 0.1538187738940901    3    3   11   11
 0.0003775519740300512    4    1    4    1
 0.0008044122464936747    4    1    4    2
 0.0009754018271982173    4    1    4    3
 -0.0005378687749085816    4    1    6    4
 0.0004404423666959053    4    1    7    4
 0.001258645824919714    4    1    8    1
 0.001000014451071824    4    1    8    2
 0.0008087962073309875    4    1    8    3
 -0.0002261363725729805    4    1    8    6
 0.001446592941350618    4    1    8    7
 -0.00142366614712721    4    1    9    1
 -0.001131125764247278    4    1    9    2
 -0.000914837007762257    4    1    9    3
 0.0002557849808835898    4    1    9    6
 -0.001636254900702842    4    1    9    7
 -0.0007907841632014309    4    1   10    4
 -0.001242893057044839    4    1   10    8
 0.001405848043016436    4    1   10    9
 1.558600277062027e-06    4    1   11    4
 0.0001725400964802851    4    1   11    8
 -0.00019516172819841    4    1   11    9
 0.0008044122464936743    4    2    4    1
 0.008303862316342288    4    2    4    2
 0.008074793924143642    4    2    4    3
 -0.008362955293667106    4    2    6    4
 -0.002995026504008225    4    2    7    4
 0.002119853887528194    4    2    8    1
 0.006166316122492199    4    2    8    2
 0.00256287571643219    4    2    8    3
 0.0003833625151430262    4    2    8    6
 0.006493693044607523    4    2    8    7
 -0.002397786698035103    4    2    9    1
 -0.006974778243622958    4    2    9    2
 -0.002898892861311209    4    2    9    3
 -0.000433624951579591    4    2    9    6
 -0.007345077363628388    4    2    9    7
 -0.005621495729712044    4    2   10    4
 -0.007489474382798947    4    2   10    8
 0.008471415014027064    4    2   10    9
 -5.085354384437451e-05    4    2   11    4
 0.001636045017071645    4    2   11    8
 -0.001850545927906    4    2   11    9
 0.0009754018271982171    4    3    4    1
 0.008074793924143642    4    3    4    2
 0.02277592514450461    4    3    4    3
 -0.009212611040222227    4    3    6    4
 -0.006493698215926142    4    3    7    4
 0.00261305575541227    4    3    8    1
 0.004826676420623678    4    3    8    2
 0.004451146037775679    4    3    8    3
 -0.001934072959778833    4    3    8    6
 0.013235931900233    4    3    8    7
 -0.002955651976022464    4    3    9    1
 -0.00545949915943781    4    3    9    2
 -0.005034733206464093    4    3    9    3
 0.002187648140879423    4    3    9    6
 -0.01497128723502887    4    3    9    7
 -0.004824279913178114    4    3   10    4
 -0.00670977593193738    4    3   10    8
 0.007589490752664702    4    3   10    9
 -0.002464882634671311    4    3   11    4
 0.0002154119795517049    4    3   11    8
 -0.0002436545189294873    4    3   11    9
 0.1895820086376905    4    4    1    1
 -0.000222000667609488    4    4    2    1
 0.1702701179984359    4    4    2    2
 0.000135170567136958    4    4    3    1
 0.001553970517233199    4    4    3    2
 0.1548277037332561    4    4    3    3
 0.1602868465283099    4    4    4    4
 0.1412428218226852    4    4    5    5
 -0.0001666401720083266    4    4    6    1
 0.005626265266046379    4    4    6    2
 -0.01194181324421354    4    4    6    3
 0.1382657280125157    4    4    6    6
 -0.0005600670177303222    4    4    7    1
 0.0047716264278011    4    4    7    2
 0.01796448396233234    4    4    7    3
 -0.002464072100397289    4    4    7    6
 0.1637398858132593    4    4    7    7
 0.01360154800917655    4    4    8    4
 0.01531250118055296    4    4    8    5
 0.1703589965250834    4    4    8    8
 -0.01538483905941164    4    4    9    4
 0.01353759497538928    4    4    9    5
 -0.006953431624768673    4    4    9    8
 0.1720766446888848    4    4    9    9
 -8.816109249402521e-05    4    4   10    1
 -0.01014626788736635    4    4   10    2
 -0.0007559382227096552    4    4   10    3
 0.005979667708438528    4    4   10    6
 -0.0004335491720910113    4    4   10    7
 0.1730040894977425    4    4   10   10
 -6.741047893967536e-05    4    4   11    1
 -0.001487083576471815    4    4   11    2
 -0.001169743978879897    4    4   11    3
 -0.00290876095660477    4    4   11    6
 0.0002476331139121394    4    4   11    7
 -0.003876867312684543    4    4   11   10
 0.1644086192121    4    4   11   11
 0.000377551974030051    5    1    5    1
 0.0008044122464936742    5    1    5    2
 0.0009754018271982167    5    1    5    3
 -0.000537868774908581    5    1    6    5
 0.0004404423666959054    5    1    7    5
 0.001423666147127211    5    1    8    1
 0.001131125764247278    5    1    8    2
 0.0009148370077622576    5    1    8    3
 -0.0002557849808835902    5    1    8    6
 0.001636254900702842    5    1    8    7
 0.001258645824919711    5    1    9    1
 0.001000014451071823    5    1    9    2
 0.0008087962073309868    5    1    9    3
 -0.0002261363725729805    5    1    9    6
 0.001446592941350616    5    1    9    7
 -0.0007907841632014308    5    1   10    5
 -0.001405848043016437    5    1   10    8
 -0.001242893057044837    5    1   10    9
 1.558600277062139e-06    5    1   11    5
 0.0001951617281984104    5    1   11    8
 0.000172540096480285    5    1   11    9
 0.0008044122464936742    5    2    5    1
 0.008303862316342286    5    2    5    2
 0.00807479392414364    5    2    5    3
 -0.008362955293667106    5    2    6    5
 -0.002995026504008227    5    2    7    5
 0.002397786698035104    5    2    8    1
 0.006974778243622954    5    2    8    2
 0.002898892861311205    5    2    8    3
 0.0004336249515795942    5    2    8    6
 0.007345077363628394    5    2    8    7
 0.002119853887528194    5    2    9    1
 0.006166316122492203    5    2    9    2
 0.002562875716432191    5    2    9    3
 0.0003833625151430243    5    2    9    6
 0.006493693044607525    5    2    9    7
 -0.005621495729712041    5    2   10    5
 -0.008471415014027064    5    2   10    8
 -0.007489474382798951    5    2   10    9
 -5.085354384437505e-05    5    2   11    5
 0.001850545927906001    5    2   11    8
 0.001636045017071647    5    2   11    9
 0.0009754018271982169    5    3    5    1
 0.008074793924143642    5    3    5    2
 0.0227759251445046    5    3    5    3
 -0.009212611040222231    5    3    6    5
 -0.006493698215926148    5    3    7    5
 0.002955651976022464    5    3    8    1
 0.005459499159437802    5    3    8    2
 0.005034733206464082    5    3    8    3
 -0.002187648140879417    5    3    8    6
 0.01497128723502887    5    3    8    7
 0.00261305575541227    5    3    9    1
 0.00482667642062368    5    3    9    2
 0.004451146037775685    5    3    9    3
 -0.001934072959778833    5    3    9    6
 0.013235931900233    5    3    9    7
 -0.004824279913178112    5    3   10    5
 -0.00758949075266471    5    3   10    8
 -0.006709775931937393    5    3   10    9
 -0.002464882634671312    5    3   11    5
 0.0002436545189294849    5    3   11    8
 0.0002154119795517014    5    3   11    9
 0.00952201235281234    5    4    5    4
 3.616893942933216e-05    5    4    8    4
 3.197651689363118e-05    5    4    8    5
 0.006953431624768643    5    4    8    8
 3.197651689362617e-05    5    4    9    4
 -3.616893942932678e-05    5    4    9    5
 -0.0008588240819006085    5    4    9    8
 -0.006953431624768633    5    4    9    9
 0.1895820086376905    5    5    1    1
 -0.0002220006676094894    5    5    2    1
 0.1702701179984359    5    5    2    2
 0.0001351705671369619    5    5    3    1
 0.001553970517233195    5    5    3    2
 0.1548277037332561    5    5    3    3
 0.1412428218226852    5    5    4    4
 0.1602868465283099    5    5    5    5
 -0.0001666401720083305    5    5    6    1
 0.005626265266046395    5    5    6    2
 -0.01194181324421355    5    5    6    3
 0.1382657280125157    5    5    6    6
 -0.0005600670177303273    5    5    7    1
 0.004771626427801102    5    5    7    2
 0.01796448396233233    5    5    7    3
 -0.002464072100397233    5    5    7    6
 0.1637398858132593    5    5    7    7
 0.01353759497538929    5    5    8    4
 0.01538483905941162    5    5    8    5
 0.1720766446888846    5    5    8    8
 -0.01531250118055299    5    5    9    4
 0.01360154800917654    5    5    9    5
 0.006953431624768678    5    5    9    8
 0.1703589965250835    5    5    9    9
 -8.81610924940207e-05    5    5   10    1
 -0.01014626788736631    5    5   10    2
 -0.0007559382227096346    5    5   10    3
 0.005979667708438604    5    5   10    6
 -0.0004335491720909634    5    5   10    7
 0.1730040894977424    5    5   10   10
 -6.741047893968081e-05    5    5   11    1
 -0.001487083576471779    5    5   11    2
 -0.00116974397887988    5    5   11    3
 -0.002908760956604742    5    5   11    6
 0.000247633113912135    5    5   11    7
 -0.003876867312684462    5    5   11   10
 0.1644086192121    5    5   11   11
 0.006607575374129131    6    1    1    1
 0.0005607747417553276    6    1    2    1
 0.00637201013192479    6    1    2    2
 -0.001344813478738174    6    1    3    1
 -0.0009909330575774554    6    1    3    2
 -0.002211718551087555    6    1    3    3
 -0.0001666401720083262    6    1    4    4
 -0.0001666401720083262    6    1    5    5
 0.001331323244653403    6    1    6    1
 0.00209612263890788    6    1    6    2
 -1.323034251516952e-05    6    1    6    3
 0.001423417203772697    6    1    6    6
 -0.002733714666719394    6    1    7    1
 -3.07867260721546e-05    6    1    7    2
 -0.001732252670650035    6    1    7    3
 0.001373012148907876    6    1    7    6
 -0.003598007753011405    6    1    7    7
 -8.736652068713213e-05    6    1    8    4
 -9.882109441112499e-05    6    1    8    5
 -0.0002551248152138869    6    1    8    8
 9.882109441112504e-05    6    1    9    4
 -8.736652068713215e-05    6    1    9    5
 -0.0002551248152138872    6    1    9    9
 -0.002360384823775424    6    1   10    1
 0.0002071142382043873    6    1   10    2
 -0.001406788965525816    6    1   10    3
 0.0001466648445759229    6    1   10    6
 -0.001569695832028339    6    1   10    7
 0.002197848130255397    6    1   10   10
 3.87084918333955e-05    6    1   11    1
 -0.001093835852482261    6    1   11    2
 0.0001507198000030455    6    1   11    3
 -0.0009322395768919724    6    1   11    6
 -0.0001836769439265223    6    1   11    7
 -0.001718627752425662    6    1   11   10
 0.006497088069269412    6    1   11   11
 0.04834804963635669    6    2    1    1
 0.002077667919398923    6    2    2    1
 0.0895578153845052    6    2    2    2
 -0.00175442081413378    6    2    3    1
 -0.01211792579661117    6    2    3    2
 0.008364526291481426    6    2    3    3
 0.005626265266046401    6    2    4    4
 0.005626265266046399    6    2    5    5
 0.002096122638907881    6    2    6    1
 0.03085114685316222    6    2    6    2
 -0.006261062830476749    6    2    6    3
 0.01621983761050864    6    2    6    6
 -0.003341729857501319    6    2    7    1
 0.003599494780483354    6    2    7    2
 0.004670560045119298    6    2    7    3
 -0.001214108340886357    6    2    7    6
 0.01158227564593999    6    2    7    7
 0.005350760733293895    6    2    8    4
 0.006052295861589191    6    2    8    5
 0.02188813127780423    6    2    8    8
 -0.006052295861589192    6    2    9    4
 0.005350760733293892    6    2    9    5
 0.02188813127780425    6    2    9    9
 -0.002390134793821873    6    2   10    1
 0.01811679521738348    6    2   10    2
 -0.005899561416165446    6    2   10    3
 0.007205937527416082    6    2   10    6
 -0.002267490483843264    6    2   10    7
 0.0449414949650044    6    2   10   10
 9.129134260867997e-05    6    2   11    1
 -0.0387375719719269    6    2   11    2
 0.007624136127428027    6    2   11    3
 -0.02164584893667334    6    2   11    6
 -0.001265020344736486    6    2   11    7
 -0.02509659205541521    6    2   11   10
 0.1163571218250606    6    2   11   11
 -0.04094305384506684    6    3    1    1
 0.000349569561386085    6    3    2    1
 -0.03201036010895069    6    3    2    2
 0.0001493458904142419    6    3    3    1
 0.001256536143866173    6    3    3    2
 -0.00676168847255555    6    3    3    3
 -0.01194181324421355    6    3    4    4
 -0.01194181324421355    6    3    5    5
 -1.323034251516961e-05    6    3    6    1
 -0.006261062830476747    6    3    6    2
 0.008476848977493867    6    3    6    3
 -0.01082063550390189    6    3    6    6
 0.000613490417995042    6    3    7    1
 -0.002492562139750497    6    3    7    2
 -0.01180740225197195    6    3    7    3
 -0.0006480035789374174    6    3    7    6
 -0.01887799916806484    6    3    7    7
 -0.005447275015014302    6    3    8    4
 -0.006161464074663277    6    3    8    5
 -0.02441463401107114    6    3    8    8
 0.006161464074663278    6    3    9    4
 -0.0054472750150143    6    3    9    5
 -0.02441463401107117    6    3    9    9
 -0.0004635094324423452    6    3   10    1
 0.0009590702422331906    6    3   10    2
 0.002774247238439637    6    3   10    3
 -0.002202039271678217    6    3   10    6
 -0.0002374754861282473    6    3   10    7
 -0.02633325481389872    6    3   10   10
 0.0001508170939551892    6    3   11    1
 0.00723927133667368    6    3   11    2
 -5.968960008338501e-05    6    3   11    3
 0.004285474266343721    6    3   11    6
 -0.0004700056085434881    6    3   11    7
 0.005705247437259382    6    3   11   10
 -0.03432825661717312    6    3   11   11
 -0.0005378687749085817    6    4    4    1
 -0.008362955293667105    6    4    4    2
 -0.009212611040222226    6    4    4    3
 0.01458632550560967    6    4    6    4
 0.005954625670472561    6    4    7    4
 -0.001437384497945624    6    4    8    1
 -0.003609766108662937    6    4    8    2
 -0.002483631264249319    6    4    8    3
 -0.001711468442612611    6    4    8    6
 -0.006683347966417935    6    4    8    7
 0.001625839143637698    6    4    9    1
 0.004083040444104581    6    4    9    2
 0.002809258715082987    6    4    9    3
 0.001935858074911206    6    4    9    6
 0.007559597831953758    6    4    9    7
 0.00496903431559323    6    4   10    4
 0.005897432017741068    6    4   10    8
 -0.006670640900252985    6    4   10    9
 0.002111883304307657    6    4   11    4
 -0.001124409225502972    6    4   11    8
 0.001271829865219012    6    4   11    9
 -0.0005378687749085814    6    5    5    1
 -0.008362955293667103    6    5    5    2
 -0.009212611040222226    6    5    5    3
 0.01458632550560967    6    5    6    5
 0.005954625670472561    6    5    7    5
 -0.001625839143637697    6    5    8    1
 -0.004083040444104577    6    5    8    2
 -0.002809258715082986    6    5    8    3
 -0.001935858074911206    6    5    8    6
 -0.007559597831953758    6    5    8    7
 -0.001437384497945625    6    5    9    1
 -0.003609766108662942    6    5    9    2
 -0.002483631264249323    6    5    9    3
 -0.001711468442612607    6    5    9    6
 -0.00668334796641793    6    5    9    7
 0.004969034315593228    6    5   10    5
 0.006670640900252984    6    5   10    8
 0.005897432017741075    6    5   10    9
 0.002111883304307657    6    5   11    5
 -0.001271829865219011    6    5   11    8
 -0.001124409225502973    6    5   11    9
 0.1892744635361003    6    6    1    1
 0.001198062047744381    6    6    2    1
 0.2186481945928101    6    6    2    2
 -0.001167333331780997    6    6    3    1
 -0.01025816996764872    6    6    3    2
 0.1308634936731919    6    6    3    3
 0.1382657280125157    6    6    4    4
 0.1382657280125157    6    6    5    5
 0.001423417203772697    6    6    6    1
 0.01621983761050861    6    6    6    2
 -0.01082063550390187    6    6    6    3
 0.1620988664763781    6    6    6    6
 -0.00276353275994492    6    6    7    1
 0.00179960846552889    6    6    7    2
 0.01721306756748548    6    6    7    3
 0.007587998894886832    6    6    7    6
 0.1445501425220539    6    6    7    7
 0.01186986027366264    6    6    8    4
 0.01342611075186429    6    6    8    5
 0.159566366314916    6    6    8    8
 -0.01342611075186429    6    6    9    4
 0.01186986027366265    6    6    9    5
 0.1595663663149162    6    6    9    9
 -0.001559480317015933    6    6   10    1
 0.01388057413491643    6    6   10    2
 -0.00948820993951912    6    6   10    3
 0.004072141846093888    6    6   10    6
 -0.003863430299543759    6    6   10    7
 0.1893994449295998    6    6   10   10
 9.814952993827517e-05    6    6   11    1
 -0.01417047566571402    6    6   11    2
 0.001395843967483852    6    6   11    3
 -0.01658682329439856    6    6   11    6
 -0.001738948905080017    6    6   11    7
 -0.009694671506165181    6    6   11   10
 0.2327856196375547    6    6   11   11
 -0.1228351317090706    7    1    1    1
 0.008619681961944093    7    1    2    1
 -0.01187339467872384    7    1    2    2
 0.008393406234159947    7    1    3    1
 0.0005517454922561265    7    1    3    2
 0.001769074887277972    7    1    3    3
 -0.000560067017730317    7    1    4    4
 -0.0005600670177303168    7    1    5    5
 -0.002733714666719398    7    1    6    1
 -0.003341729857501322    7    1    6    2
 0.0006134904179950461    7    1    6    3
 -0.00276353275994493    7    1    6    6
 0.01621575894433269    7    1    7    1
 -0.001454640469487995    7    1    7    2
 0.0004458986695586762    7    1    7    3
 -0.001047060026095856    7    1    7    6
 0.000842093051614885    7    1    7    7
 -0.0008364639299647085    7    1    8    4
 -0.0009461322294218105    7    1    8    5
 -0.005247470231824264    7    1    8    8
 0.00094613222942181    7    1    9    4
 -0.0008364639299647073    7    1    9    5
 -0.00524747023182427    7    1    9    9
 -0.002126468797086899    7    1   10    1
 0.002545510864251864    7    1   10    2
 0.002263058467918971    7    1   10    3
 0.0005758332658485325    7    1   10    6
 0.002490344912459998    7    1   10    7
 -0.007558067271804789    7    1   10   10
 0.003627966641822501    7    1   11    1
 0.0003035129116509076    7    1   11    2
 -0.0004207538662683447    7    1   11    3
 0.001031551040118231    7    1   11    6
 -0.0002850347662649262    7    1   11    7
 0.003170286507840835    7    1   11   10
 -0.009699703431193014    7    1   11   11
 0.04024592950086162    7    2    1    1
 -0.001257088346602194    7    2    2    1
 0.01141258793980146    7    2    2    2
 -0.0006694824488194037    7    2    3    1
 0.0009816879470347603    7    2    3    2
 0.00978285748655554    7    2    3    3
 0.004771626427801106    7    2    4    4
 0.004771626427801105    7    2    5    5
 -3.07867260721605e-05    7    2    6    1
 0.003599494780483343    7    2    6    2
 -0.002492562139750492    7    2    6    3
 0.001799608465528897    7    2    6    6
 -0.001454640469488001    7    2    7    1
 0.003511359996290422    7    2    7    2
 0.007185595112552963    7    2    7    3
 -0.004081180843396922    7    2    7    6
 0.01532763031470657    7    2    7    7
 0.004562419276331436    7    2    8    4
 0.005160595414621921    7    2    8    5
 0.01831829536735837    7    2    8    8
 -0.005160595414621921    7    2    9    4
 0.004562419276331434    7    2    9    5
 0.01831829536735839    7    2    9    9
 0.0006066714563924783    7    2   10    1
 -0.006803228005389544    7    2   10    2
 0.0006391142430691695    7    2   10    3
 0.0002318312722610082    7    2   10    6
 -0.0004811920518516794    7    2   10    7
 0.01394943576283785    7    2   10   10
 -0.0004663947112101633    7    2   11    1
 -0.002509434936282554    7    2   11    2
 0.0007147735474501199    7    2   11    3
 -0.0004813084198021419    7    2   11    6
 0.0002614796371676103    7    2   11    7
 -0.003828636279165546    7    2   11   10
 0.008021299250075001    7    2   11   11
 0.1089478543956074    7    3    1    1
 -0.003639833701678868    7    3    2    1
 0.03685456328761962    7    3    2    2
 0.0007118425635130948    7    3    3    1
 0.001597787682388579    7    3    3    2
 0.03556956206428647    7    3    3    3
 0.01796448396233235    7    3    4    4
 0.01796448396233235    7    3    5    5
 -0.001732252670650035    7    3    6    1
 0.004670560045119305    7    3    6    2
 -0.01180740225197196    7    3    6    3
 0.01721306756748544    7    3    6    6
 0.0004458986695586804    7    3    7    1
 0.007185595112552946    7    3    7    2
 0.03790839376926061    7    3    7    3
 -0.01106964438529949    7    3    7    6
 0.06417002301335915    7    3    7    7
 0.01388957200361336    7    3    8    4
 0.0157106257122742    7    3    8    5
 0.05518947110910442    7    3    8    8
 -0.0157106257122742    7    3    9    4
 0.01388957200361335    7    3    9    5
 0.05518947110910451    7    3    9    9
 0.005005452856870264    7    3   10    1
 -0.009256578663394193    7    3   10    2
 0.007644845837747874    7    3   10    3
 -0.00211889119067613    7    3   10    6