 &FCI NORB=  10,NELEC= 2,MS2=0,
  ORBSYM=1,1,1,1,1,1,1,1,1,1,
  ISYM=1,
 &END
 0.4624491470059069    1    1    1    1
 0.4069198787432187    1    1    2    2
 0.1001345083085859    1    1    3    1
 6.480926906249351e-15    1    1    3    2
 0.4086561096221715    1    1    3    3
 -5.828670879282072e-15    1    1    4    1
 0.1148921067663096    1    1    4    2
 0.4113699943198683    1    1    4    4
 -0.0380394229090574    1    1    5    1
 -0.01169088528442023    1    1    5    3
 1.033895191682177e-15    1    1    5    4
 0.4941316556226437    1    1    5    5
 0.4832278898268374    1    1    6    6
 0.4832278898268377    1    1    7    7
 0.4802675323590985    1    1    8    8
 0.4802675323590986    1    1    9    9
 -0.01366798344812939    1    1   10    2
 -2.782496455466799e-15    1    1   10    3
 -0.0485236647043578    1    1   10    4
 0.4931259272784274    1    1   10   10
 0.1314944393851833    2    1    2    1
 4.062722380737682e-15    2    1    3    1
 0.04277472784170237    2    1    3    2
 1.434963259328015e-14    2    1    3    3
 0.07293133745994478    2    1    4    1
 -2.310651670001107e-15    2    1    4    2
 0.1283738576398541    2    1    4    3
 -1.412758798835512e-14    2    1    4    4
 0.07248095074637093    2    1    5    2
 0.02425311505990484    2    1    5    4
 1.006139616066548e-15    2    1    7    7
 0.01503558568462115    2    1    8    6
 -0.1602539139895811    2    1    8    7
 -1.054711873393899e-15    2    1    8    8
 0.1602539139895811    2    1    9    6
 0.01503558568462112    2    1    9    7
 -0.002831999144514134    2    1   10    1
 -0.006148680005525484    2    1   10    3
 0.1460141783889211    2    1   10    5
 0.4069198787432186    2    2    1    1
 0.3881880750257571    2    2    2    2
 0.07780210843156168    2    2    3    1
 4.940492459581947e-15    2    2    3    2
 0.3684002936412342    2    2    3    3
 -4.427014310692812e-15    2    2    4    1
 0.08841492150975738    2    2    4    2
 0.3820730610023214    2    2    4    4
 0.009383109945440976    2    2    5    1
 0.005557615005486768    2    2    5    3
 0.441561419600478    2    2    5    5
 0.4324422878848327    2    2    6    6
 0.432442287884833    2    2    7    7
 0.4344965973086233    2    2    8    8
 0.4344965973086234    2    2    9    9
 0.01857874550575559    2    2   10    2
 -1.242062008799394e-15    2    2   10    3
 -0.01883902767710047    2    2   10    4
 0.4409895407435007    2    2   10   10
 0.1001345083085859    3    1    1    1
 4.048844592929868e-15    3    1    2    1
 0.07780210843156166    3    1    2    2
 0.06924060705453698    3    1    3    1
 6.987899842103573e-15    3    1    3    2
 0.08871349244208589    3    1    3    3
 0.0698579234044103    3    1    4    2
 5.48172618408671e-15    3    1    4    3
 0.1008445157601322    3    1    4    4
 -0.01236115460705058    3    1    5    1
 1.394717674685353e-15    3    1    5    2
 -0.003060266534317564    3    1    5    3
 1.089406342913435e-15    3    1    5    4
 0.1185366000865185    3    1    5    5
 0.1082128139186782    3    1    6    6
 0.1082128139186782    3    1    7    7
 -5.363764987720288e-15    3    1    8    7
 0.108335951166741    3    1    8    8
 5.384581669432009e-15    3    1    9    6
 0.108335951166741    3    1    9    9
 -0.006333259408491026    3    1   10    2
 -2.366162821232365e-15    3    1   10    3
 -0.02430644861739804    3    1   10    4
 4.898859096158503e-15    3    1   10    5
 0.122157356240055    3    1   10   10
 6.454906054109699e-15    3    2    1    1
 0.04277472784170232    3    2    2    1
 4.920109458739219e-15    3    2    2    2
 7.030834248133999e-15    3    2    3    1
 0.04708106090503279    3    2    3    2
 1.176836406102666e-14    3    2    3    3
 0.0561846417966943    3    2    4    1
 1.758142242902494e-15    3    2    4    2
 0.05398730475305925    3    2    4    3
 0.0166295271446875    3    2    5    2
 0.01252492378277634    3    2    5    4
 7.382983113757291e-15    3    2    5    5
 7.042977312465837e-15    3    2    6    6
 7.487066522315899e-15    3    2    7    7
 0.005486703430434297    3    2    8    6
 -0.05847897900821363    3    2    8    7
 6.755013215453687e-15    3    2    8    8
 0.05847897900821361    3    2    9    6
 0.005486703430434287    3    2    9    7
 7.265021917390868e-15    3    2    9    9
 -0.01044398378936204    3    2   10    1
 -0.01300102537576996    3    2   10    3
 0.0544846652749264    3    2   10    5
 7.389922007661198e-15    3    2   10   10
 0.4086561096221715    3    3    1    1
 1.432187701766452e-14    3    3    2    1
 0.3684002936412342    3    3    2    2
 0.08871349244208587    3    3    3    1
 1.172673069760322e-14    3    3    3    2
 0.3840437351704131    3    3    3    3
 4.20496970576778e-15    3    3    4    1
 0.101214581630101    3    3    4    2
 1.615374500829603e-14    3    3    4    3
 0.3874210763943456    3    3    4    4
 -0.02094257840679771    3    3    5    1
 6.553785292240377e-15    3    3    5    2
 -0.003026228895451549    3    3    5    3
 3.016684124723668e-15    3    3    5    4
 0.4246459186996902    3    3    5    5
 0.4193658346477319    3    3    6    6
 0.4193658346477322    3    3    7    7
 1.554312234475219e-15    3    3    8    6
 -1.65145674912992e-14    3    3    8    7
 0.4186260404508811    3    3    8    8
 1.665334536937735e-14    3    3    9    6
 1.554312234475219e-15    3    3    9    7
 0.4186260404508813    3    3    9    9
 -1.245531455751347e-15    3    3   10    1
 -0.01014855315275508    3    3   10    2
 -3.649858193455202e-15    3    3   10    3
 -0.03709843791476886    3    3   10    4
 1.532107773982716e-14    3    3   10    5
 0.4289378932767853    3    3   10   10
 -5.859895901849654e-15    4    1    1    1
 0.07293133745994479    4    1    2    1
 -4.475586568020162e-15    4    1    2    2
 0.05618464179669434    4    1    3    2
 4.163336342344337e-15    4    1    3    3
 0.07277751289274707    4    1    4    1
 -7.042109950727848e-15    4    1    4    2
 0.08395811787788825    4    1    4    3
 -1.53627111032506e-14    4    1    4    4
 0.02951114472973317    4    1    5    2
 0.01540115860253367    4    1    5    4
 -6.696032617270475e-15    4    1    5    5
 -6.446232436729815e-15    4    1    6    6
 -5.710709682915649e-15    4    1    7    7
 0.008961690989328369    4    1    8    6
 -0.09551646920372157    4    1    8    7
 -6.931955010003321e-15    4    1    8    8
 0.09551646920372156    4    1    9    6
 0.008961690989328353    4    1    9    7
 -6.085409953726639e-15    4    1    9    9
 -0.0156093056240604    4    1   10    1
 -0.01663644258123421    4    1   10    3
 2.626371342628886e-15    4    1   10    4
 0.08718756884710557    4    1   10    5
 -7.28583859910259e-15    4    1   10   10
 0.1148921067663096    4    2    1    1
 -2.286365541337432e-15    4    2    2    1
 0.08841492150975744    4    2    2    2
 0.06985792340441033    4    2    3    1
 1.692927482227491e-15    4    2    3    2
 0.1012145816301008    4    2    3    3
 -7.081141228937327e-15    4    2    4    1
 0.07822415998308359    4    2    4    2
 -2.400857290751901e-15    4    2    4    3
 0.1083299440662837    4    2    4    4
 -0.0091240749798027    4    2    5    1
 -1.023486850826316e-15    4    2    5    2
 0.003098933868101584    4    2    5    3
 0.1295982044912637    4    2    5    5
 0.1264799418662459    4    2    6    6
 0.1264799418662461    4    2    7    7
 3.275157922644212e-15    4    2    8    7
 0.1268270703653428    4    2    8    8
 -3.240463453124676e-15    4    2    9    6
 0.1268270703653428    4    2    9    9
 -0.00371836793631616    4    2   10    2
 -0.02125199576023382    4    2   10    4
 -2.997602166487923e-15    4    2   10    5
 0.1337461720312452    4    2   10   10
 0.1283738576398541    4    3    2    1
 5.367234434672241e-15    4    3    3    1
 0.05398730475305914    4    3    3    2
 1.607047828144914e-14    4    3    3    3
 0.08395811787788826    4    3    4    1
 -2.35228503342455e-15    4    3    4    2
 0.1436913541998333    4    3    4    3
 -1.565414464721471e-14    4    3    4    4
 0.06313515550987461    4    3    5    2
 1.207367539279858e-15    4    3    5    3
 0.02377031725461495    4    3    5    4
 1.457167719820518e-15    4    3    7    7
 0.01394981675765488    4    3    8    6
 -0.1486814535690613    4    3    8    7
 0.1486814535690613    4    3    9    6
 0.01394981675765485    4    3    9    7
 -0.01111900077192586    4    3   10    1
 -0.01234397215925484    4    3   10    3
 1.287164819174791e-15    4    3   10    4
 0.1375699508793101    4    3   10    5
 0.4113699943198682    4    4    1    1
 -1.415534356397075e-14    4    4    2    1
 0.3820730610023213    4    4    2    2
 0.1008445157601321    4    4    3    1
 0.3874210763943456    4    4    3    3
 -1.529332216421153e-14    4    4    4    1
 0.1083299440662839    4    4    4    2
 -1.537658889105842e-14    4    4    4    3
 0.4040318710538536    4    4    4    4
 -0.004596799947458161    4    4    5    1
 -7.376044219853384e-15    4    4    5    2
 0.002826798726395999    4    4    5    3
 -2.359223927328458e-15    4    4    5    4
 0.4366905200457378    4    4    5    5
 0.4272736774057952    4    4    6    6
 0.4272736774057956    4    4    7    7
 -1.554312234475219e-15    4    4    8    6
 1.654232306691483e-14    4    4    8    7
 0.4284562705970011    4    4    8    8
 -1.640354518883669e-14    4    4    9    6
 -1.554312234475219e-15    4    4    9    7
 0.4284562705970013    4    4    9    9
 1.365227375593747e-15    4    4   10    1
 0.00211524677347094    4    4   10    2
 -0.0309092043628872    4    4   10    4
 -1.501576640805524e-14    4    4   10    5
 0.4411424433154131    4    4   10   10
 -0.0380394229090574    5    1    1    1
 0.00938310994544098    5    1    2    2
 -0.01236115460705058    5    1    3    1
 -0.0209425784067977    5    1    3    3
 -0.009124074979802702    5    1    4    2
 -0.00459679994745814    5    1    4    4
 0.07840600012023653    5    1    5    1
 0.03614792841076166    5    1    5    3
 -2.05391259555654e-15    5    1    5    4
 -0.02690853125762033    5    1    5    5
 -0.0243326820557046    5    1    6    6
 -0.02433268205570462    5    1    7    7
 -0.01620987897383879    5    1    8    8
 -0.0162098789738388    5    1    9    9
 0.05690096820224508    5    1   10    2
 2.609024107869118e-15    5    1   10    3
 0.04647601614477298    5    1   10    4
 -0.02671517874932642    5    1   10   10
 0.07248095074637093    5    2    2    1
 1.415534356397075e-15    5    2    3    1
 0.0166295271446875    5    2    3    2
 6.602357549567728e-15    5    2    3    3
 0.02951114472973318    5    2    4    1
 -1.004404892590571e-15    5    2    4    2
 0.06313515550987464    5    2    4    3
 -7.362166432045569e-15    5    2    4    4
 0.07248885146172435    5    2    5    2
 1.734723475976807e-15    5    2    5    3
 0.03381117482773162    5    2    5    4
 0.007539193115658769    5    2    8    6
 -0.0803550477147951    5    2    8    7
 -1.020017403874363e-15    5    2    8    8
 0.08035504771479507    5    2    9    6
 0.007539193115658755    5    2    9    7
 0.03719634375623304    5    2   10    1
 0.01939975057475295    5    2   10    3
 0.0911180095558647    5    2   10    5
 -0.01169088528442024    5    3    1    1
 0.005557615005486783    5    3    2    2
 -0.003060266534317569    5    3    3    1
 -0.003026228895451584    5    3    3    3
 0.003098933868101586    5    3    4    2
 1.257023998779694e-15    5    3    4    3
 0.002826798726396055    5    3    4    4
 0.03614792841076166    5    3    5    1
 1.746866540308645e-15    5    3    5    2
 0.0230134163170354    5    3    5    3
 -0.01055391568332246    5    3    5    5
 -0.005214389274357495    5    3    6    6
 -0.005214389274357498    5    3    7    7
 -1.013403770622201e-15    5    3    8    7
 -0.001922071511101943    5    3    8    8
 -0.001922071511101944    5    3    9    9
 1.43982048506075e-15    5    3   10    1
 0.02603587117528459    5    3   10    2
 2.470246229790973e-15    5    3   10    3
 0.02546949510690214    5    3   10    4
 1.118896642005041e-15    5    3   10    5
 -0.01204225505752477    5    3   10   10
 1.013945871708444e-15    5    4    1    1
 0.02425311505990484    5    4    2    1
 1.089406342913435e-15    5    4    3    1
 0.01252492378277637    5    4    3    2
 3.051378594243204e-15    5    4    3    3
 0.01540115860253368    5    4    4    1
 0.02377031725461487    5    4    4    3
 -2.272487753529617e-15    5    4    4    4
 -2.033963275582806e-15    5    4    5    1
 0.03381117482773163    5    4    5    2
 0.02531095482863567    5    4    5    4
 1.06512021424976e-15    5    4    5    5
 0.002527095939871223    5    4    8    6
 -0.02693456868831955    5    4    8    7
 0.02693456868831954    5    4    9    6
 0.002527095939871217    5    4    9    7
 0.0254010004062703    5    4   10    1
 -1.476249678056263e-15    5    4   10    2
 0.01752594365297207    5    4   10    3
 -2.331468351712829e-15    5    4   10    4
 0.0295324652485283    5    4   10    5
 1.127570259384925e-15    5    4   10   10
 0.4941316556226436    5    5    1    1
 0.4415614196004778    5    5    2    2
 0.1185366000865184    5    5    3    1
 7.382983113757291e-15    5    5    3    2
 0.42464591869969    5    5    3    3
 -6.702971511174383e-15    5    5    4    1
 0.1295982044912636    5    5    4    2
 0.4366905200457379    5    5    4    4
 -0.02690853125762036    5    5    5    1
 -0.01055391568332247    5    5    5    3
 1.077263278581597e-15    5    5    5    4
 0.5830736003469066    5    5    5    5
 0.5121218960007609    5    5    6    6
 0.5121218960007612    5    5    7    7
 0.5083013852378977    5    5    8    8
 0.5083013852378978    5    5    9    9
 0.0151833916222169    5    5   10    2
 -2.602085213965211e-15    5    5   10    3
 -0.04041109120824278    5    5   10    4
 0.568463853775856    5    5   10   10
 0.07297167336392694    6    1    6    1
 0.02556723586940674    6    1    6    3
 -1.484923295436147e-15    6    1    6    4
 0.002005947363137521    6    1    6    5
 0.006106147633142792    6    1    8    2
 0.003649311745689716    6    1    8    4
 0.06508120655454233    6    1    9    2
 2.192690473634684e-15    6    1    9    3
 0.03889549119547073    6    1    9    4
 -0.001495150184281032    6    1   10    8
 -0.01593577224453269    6    1   10    9
 0.05053041985875527    6    2    6    2
 1.644517855226013e-15    6    2    6    3
 0.03015770651331525    6    2    6    4
 0.004861521123322901    6    2    8    1
 0.002065276250001908    6    2    8    3
 0.001559070362691851    6    2    8    5
 0.05181559297369996    6    2    9    1
 0.02201235186142796    6    2    9    3
 -1.221245327087672e-15    6    2    9    4
 0.01661705323937437    6    2    9    5
 -0.002693548427527334    6    2   10    6
 0.02556723586940675    6    3    6    1
 1.658395643033828e-15    6    3    6    2
 0.01684806257500772    6    3    6    3
 0.001630482488826567    6    3    6    5
 0.002181364350557249    6    3    8    2
 0.001951675881156361    6    3    8    4
 1.831867990631508e-15    6    3    9    1
 0.02324965467568666    6    3    9    2
 2.289834988289385e-15    6    3    9    3
 0.02080156405974091    6    3    9    4
 -0.0005684499285573373    6    3   10    8
 -0.006058714829551807    6    3   10    9
 -1.503137891933903e-15    6    4    6    1
 0.03015770651331522    6    4    6    2
 0.02469683061619614    6    4    6    4
 0.003045700835414761    6    4    8    1
 0.001874125850832152    6    4    8    3
 0.0005915156038017863    6    4    8    5
 0.0324620197679283    6    4    9    1
 -1.302777330458582e-15    6    4    9    2
 0.01997501189541951    6    4    9    3
 -2.255140518769849e-15    6    4    9    4
 0.00630455591710692    6    4    9    5
 -0.006347059993944706    6    4   10    6
 0.002005947363137522    6    5    6    1
 0.001630482488826564    6    5    6    3
 0.02766451056504201    6    5    6    5
 0.00104574143394846    6    5    8    2
 0.0002730536559692652    6    5    8    4
 0.01114583504270989    6    5    9    2
 0.002910290162025146    6    5    9    4
 0.002271863868323339    6    5   10    8
 0.02421422647490958    6    5   10    9
 0.4832278898268374    6    6    1    1
 0.4324422878848328    6    6    2    2
 0.1082128139186782    6    6    3    1
 7.119305145408816e-15    6    6    3    2
 0.419365834647732    6    6    3    3
 -6.439293542825908e-15    6    6    4    1
 0.1264799418662459    6    6    4    2
 0.4272736774057954    6    6    4    4
 -0.0243326820557046    6    6    5    1
 -0.005214389274357484    6    6    5    3
 0.5121218960007609    6    6    5    5
 0.547612917429199    6    6    6    6
 0.4992769565847364    6    6    7    7
 0.4989673749360266    6    6    8    8
 0.004597940226374983    6    6    9    8
 0.5475422464187569    6    6    9    9
 -0.005765239845201035    6    6   10    2
 -2.671474153004283e-15    6    6   10    3
 -0.04517193454525056    6    6   10    4
 0.513905433184239    6    6   10   10
 0.072971673363927    7    1    7    1
 0.02556723586940676    7    1    7    3
 -1.207367539279858e-15    7    1    7    4
 0.002005947363137524    7    1    7    5
 -0.06508120655454236    7    1    8    2
 -2.192690473634684e-15    7    1    8    3
 -0.03889549119547073    7    1    8    4
 0.006106147633142779    7    1    9    2
 0.003649311745689713    7    1    9    4
 0.0159357722445327    7    1   10    8
 -0.001495150184281029    7    1   10    9
 0.0505304198587553    7    2    7    2
 1.838806884535416e-15    7    2    7    3
 0.03015770651331526    7    2    7    4
 -0.05181559297369999    7    2    8    1
 -0.02201235186142795    7    2    8    3
 1.179611963664229e-15    7    2    8    4
 -0.01661705323937437    7    2    8    5
 0.004861521123322891    7    2    9    1
 0.002065276250001903    7    2    9    3
 0.001559070362691848    7    2    9    5
 -0.00269354842752734    7    2   10    7
 0.02556723586940677    7    3    7    1
 1.8474805019153e-15    7    3    7    2
 0.01684806257500772    7    3    7    3
 0.001630482488826566    7    3    7    5
 -1.822327011513636e-15    7    3    8    1
 -0.02324965467568667    7    3    8    2
 -2.293304435241339e-15    7    3    8    3
 -0.0208015640597409    7    3    8    4
 0.002181364350557244    7    3    9    2
 0.001951675881156363    7    3    9    4
 0.006058714829551813    7    3   10    8
 -0.0005684499285573347    7    3   10    9
 -1.228184220991579e-15    7    4    7    1
 0.03015770651331525    7    4    7    2
 0.0246968306161961    7    4    7    4
 -0.03246201976792831    7    4    8    1
 1.271552307891e-15    7    4    8    2
 -0.01997501189541948    7    4    8    3
 2.3037127760972e-15    7    4    8    4
 -0.00630455591710692    7    4    8    5
 0.003045700835414752    7    4    9    1
 0.001874125850832159    7    4    9    3
 0.0005915156038017858    7    4    9    5
 -0.00634705999394472    7    4   10    7
 0.002005947363137525    7    5    7    1
 0.001630482488826565    7    5    7    3
 0.02766451056504204    7    5    7    5
 -0.01114583504270989    7    5    8    2
 -0.002910290162025147    7    5    8    4
 0.001045741433948458    7    5    9    2
 0.0002730536559692648    7    5    9    4
 -0.02421422647490959    7    5   10    8
 0.002271863868323332    7    5   10    9
 0.02416798042223152    7    6    7    6
 -0.004597940226375004    7    6    8    8
 -0.02428743574136516    7    6    9    8
 0.004597940226374853    7    6    9    9
 0.4832278898268377    7    7    1    1
 1.054711873393899e-15    7    7    2    1
 0.4324422878848331    7    7    2    2
 0.1082128139186783    7    7    3    1
 7.494005416219807e-15    7    7    3    2
 0.4193658346477322    7    7    3    3
 -5.676015213396113e-15    7    7    4    1
 0.1264799418662461    7    7    4    2
 1.471045507628332e-15    7    7    4    3
 0.4272736774057957    7    7    4    4
 -0.02433268205570462    7    7    5    1
 -0.005214389274357502    7    7    5    3
 0.5121218960007612    7    7    5    5
 0.4992769565847364    7    7    6    6
 0.5476129174291999    7    7    7    7
 -1.360023205165817e-15    7    7    8    7
 0.5475422464187574    7    7    8    8
 1.27675647831893e-15    7    7    9    6
 -0.004597940226374886    7    7    9    8
 0.4989673749360271    7    7    9    9
 -0.005765239845201025    7    7   10    2
 -2.75474087985117e-15    7    7   10    3
 -0.04517193454525058    7    7   10    4
 1.082467449009528e-15    7    7   10    5
 0.5139054331842394    7    7   10   10
 0.004861521123322899    8    1    6    2
 0.003045700835414759    8    1    6    4
 -0.05181559297369998    8    1    7    2
 -1.811051308919787e-15    8    1    7    3
 -0.03246201976792833    8    1    7    4
 0.0548180255251666    8    1    8    1
 0.02407264903477068    8    1    8    3
 -1.554312234475219e-15    8    1    8    4
 0.01285388737347543    8    1    8    5
 -0.0007376216011093181    8    1   10    6
 0.007861798742029392    8    1   10    7
 0.006106147633142793    8    2    6    1
 0.002181364350557251    8    2    6    3
 0.00104574143394846    8    2    6    5
 -0.06508120655454236    8    2    7    1
 -0.02324965467568666    8    2    7    3
 1.262878690511116e-15    8    2    7    4
 -0.01114583504270989    8    2    7    5
 0.06218523090834799    8    2    8    2
 1.873501354054952e-15    8    2    8    3
 0.03564097346798575    8    2    8    4
 -0.006698609713331756    8    2   10    8
 0.002065276250001906    8    3    6    2
 0.001874125850832147    8    3    6    4
 -2.184884217992789e-15    8    3    7    1
 -0.02201235186142797    8    3    7    2
 -2.314121116953061e-15    8    3    7    3
 -0.0199750118954195    8    3    7    4
 0.02407264903477068    8    3    8    1
 1.863960374937079e-15    8    3    8    2
 0.01695387235611363    8    3    8    3
 0.004358948295975393    8    3    8    5
 -0.0004811469071558418    8    3   10    6
 0.005128212275400166    8    3   10    7
 0.003649311745689711    8    4    6    1
 0.001951675881156352    8    4    6    3
 0.0002730536559692627    8    4    6    5
 -0.03889549119547073    8    4    7    1
 1.191755027996066e-15    8    4    7    2
 -0.02080156405974088    8    4    7    3
 2.248201624865942e-15    8    4    7    4
 -0.002910290162025145    8    4    7    5
 -1.568190022283034e-15    8    4    8    1
 0.03564097346798575    8    4    8    2
 0.02787050116464997    8    4    8    4
 -0.008375354135691404    8    4   10    8
 0.00155907036269185    8    5    6    2
 0.0005915156038017832    8    5    6    4
 -0.01661705323937438    8    5    7    2
 -0.006304555917106918    8    5    7    4
 0.01285388737347543    8    5    8    1
 0.004358948295975397    8    5    8    3
 0.02298853824023559    8    5    8    5
 0.001838839004743735    8    5   10    6
 -0.01959891379610829    8    5   10    7
 0.01503558568462116    8    6    2    1
 0.005486703430434337    8    6    3    2
 1.530026105811544e-15    8    6    3    3
 0.008961690989328377    8    6    4    1
 0.01394981675765483    8    6    4    3
 -1.530026105811544e-15    8    6    4    4
 0.007539193115658778    8    6    5    2
 0.002527095939871216    8    6    5    4
 0.02525689836526588    8    6    8    6
 -0.01993638717985582    8    6    8    7
 0.0199363871798558    8    6    9    6
 -0.02151589447684926    8    6    9    7
 -0.001161971156058163    8    6   10    1
 -0.00111852438689846    8    6   10    3
 0.01625189895646912    8    6   10    5
 -0.1602539139895811    8    7    2    1
 -5.336009412104659e-15    8    7    3    1
 -0.05847897900821368    8    7    3    2
 -1.652844527910702e-14    8    7    3    3
 -0.09551646920372159    8    7    4    1
 3.198830089701232e-15    8    7    4    2
 -0.1486814535690612    8    7    4    3
 1.65145674912992e-14    8    7    4    4
 -0.0803550477147951    8    7    5    2
 -0.02693456868831955    8    7    5    4
 -1.415534356397075e-15    8    7    7    7
 -0.01993638717985582    8    7    8    6
 0.2358745657147502    8    7    8    7
 1.609823385706477e-15    8    7    8    8
 -0.189101772872635    8    7    9    6
 -0.01993638717985575    8    7    9    7
 0.01238464730321617    8    7   10    1
 0.01192157822469211    8    7   10    3
 -1.19522447494802e-15    8    7   10    4
 -0.1732177563392996    8    7   10    5
 0.4802675323590986    8    8    1    1
 -1.013078509970455e-15    8    8    2    1
 0.4344965973086233    8    8    2    2
 0.108335951166741    8    8    3    1
 6.730727086790012e-15    8    8    3    2
 0.4186260404508811    8    8    3    3
 -6.980527267330672e-15    8    8    4    1
 0.1268270703653428    8    8    4    2
 0.4284562705970009    8    8    4    4
 -0.01620987897383879    8    8    5    1
 -1.02695629777827e-15    8    8    5    2
 -0.00192207151110195    8    8    5    3
 0.5083013852378977    8    8    5    5
 0.4989673749360266    8    8    6    6
 -0.004597940226374983    8    8    7    6
 0.5475422464187574    8    8    7    7
 1.554312234475219e-15    8    8    8    7
 0.5497806789773194    8    8    8    8
 -1.165734175856414e-15    8    8    9    6
 0.4987931815479821    8    8    9    9
 -0.001146923754651419    8    8   10    2
 -2.366162821232365e-15    8    8   10    3
 -0.04159683355012005    8    8   10    4
 -1.110223024625157e-15    8    8   10    5
 0.5114185703545915    8    8   10   10
 0.05181559297369997    9    1    6    2
 1.838806884535416e-15    9    1    6    3
 0.03246201976792831    9    1    6    4
 0.004861521123322891    9    1    7    2
 0.003045700835414744    9    1    7    4
 0.05481802552516661    9    1    9    1
 0.02407264903477069    9    1    9    3
 -1.262878690511116e-15    9    1    9    4
 0.01285388737347543    9    1    9    5
 -0.007861798742029392    9    1   10    6
 -0.0007376216011093163    9    1   10    7
 0.06508120655454233    9    2    6    1
 0.02324965467568666    9    2    6    3
 -1.290634266126744e-15    9    2    6    4
 0.01114583504270989    9    2    6    5
 0.006106147633142779    9    2    7    1
 0.002181364350557239    9    2    7    3
 0.001045741433948456    9    2    7    5
 0.062185230908348    9    2    9    2
 2.060851489460447e-15    9    2    9    3
 0.03564097346798574    9    2    9    4
 -0.006698609713331758    9    2   10    9
 2.197027282324626e-15    9    3    6    1
 0.02201235186142796    9    3    6    2
 2.300243329145246e-15    9    3    6    3
 0.01997501189541948    9    3    6    4
 0.002065276250001901    9    3    7    2
 0.001874125850832141    9    3    7    4
 0.02407264903477069    9    3    9    1
 2.050443148604586e-15    9    3    9    2
 0.01695387235611361    9    3    9    3
 0.004358948295975391    9    3    9    5
 -0.005128212275400168    9    3   10    6
 -0.0004811469071558416    9    3   10    7
 0.03889549119547073    9    4    6    1
 -1.217775880135719e-15    9    4    6    2
 0.02080156405974089    9    4    6    3
 -2.262079412673756e-15    9    4    6    4
 0.002910290162025146    9    4    6    5
 0.003649311745689711    9    4    7    1
 0.001951675881156351    9    4    7    3
 0.0002730536559692636    9    4    7    5
 -1.267215499201058e-15    9    4    9    1
 0.03564097346798577    9    4    9    2
 0.02787050116465001    9    4    9    4
 -0.008375354135691404    9    4   10    9
 0.01661705323937437    9    5    6    2
 0.00630455591710692    9    5    6    4
 0.001559070362691849    9    5    7    2
 0.0005915156038017826    9    5    7    4
 0.01285388737347543    9    5    9    1
 0.004358948295975396    9    5    9    3
 0.0229885382402356    9    5    9    5
 0.01959891379610829    9    5   10    6
 0.001838839004743733    9    5   10    7
 0.1602539139895811    9    6    2    1
 5.370703881624195e-15    9    6    3    1
 0.05847897900821361    9    6    3    2
 1.677824545964768e-14    9    6    3    3
 0.09551646920372156    9    6    4    1
 -3.192758557535313e-15    9    6    4    2
 0.1486814535690615    9    6    4    3
 -1.623701173514291e-14    9    6    4    4
 0.08035504771479507    9    6    5    2
 1.013078509970455e-15    9    6    5    3
 0.02693456868831955    9    6    5    4
 1.249000902703301e-15    9    6    7    7
 0.01993638717985578    9    6    8    6
 -0.1891017728726349    9    6    8    7
 -1.165734175856414e-15    9    6    8    8
 0.23587456571475    9    6    9    6
 0.01993638717985577    9    6    9    7
 -0.01238464730321617    9    6   10    1
 -0.01192157822469209    9    6   10    3
 1.19522447494802e-15    9    6   10    4
 0.1732177563392995    9    6   10    5
 0.01503558568462112    9    7    2    1
 0.005486703430434269    9    7    3    2
 1.543903893619358e-15    9    7    3    3
 0.008961690989328364    9    7    4    1
 0.01394981675765494    9    7    4    3
 -1.545638617095335e-15    9    7    4    4
 0.00753919311565875    9    7    5    2
 0.002527095939871231    9    7    5    4
 -0.02151589447684926    9    7    8    6
 -0.01993638717985575    9    7    8    7
 0.01993638717985576    9    7    9    6
 0.0252568983652659    9    7    9    7
 -0.001161971156058157    9    7   10    1
 -0.001118524386898427    9    7   10    3
 0.0162518989564691    9    7   10    5
 0.004597940226374969    9    8    6    6
 -0.02428743574136517    9    8    7    6
 -0.004597940226374887    9    8    7    7
 0.02549374871466869    9    8    9    8
 0.4802675323590987    9    9    1    1
 0.4344965973086234    9    9    2    2
 0.1083359511667411    9    9    3    1
 7.258083023486961e-15    9    9    3    2
 0.4186260404508815    9    9    3    3
 -6.078471059822732e-15    9    9    4    1
 0.1268270703653427    9    9    4    2
 0.4284562705970015    9    9    4    4
 -0.01620987897383881    9    9    5    1
 -0.001922071511101943    9    9    5    3
 0.5083013852378979    9    9    5    5
 0.547542246418757    9    9    6    6
 0.004597940226374858    9    9    7    6
 0.4989673749360271    9    9    7    7