 &FCI NORB=   4,NELEC= 2,MS2=0,
  ORBSYM=1,1,1,1,
  ISYM=1,
 &END
 0.4724819951839608    1    1    1    1
 0.4402979944326622    1    1    2    2
 0.1058245311539999    1    1    3    2
 0.465572226024466    1    1    3    3
 0.08252870871129946    1    1    4    1
 0.4795412383518156    1    1    4    4
 0.152633273438348    2    1    2    1
 0.06848935889614285    2    1    3    1
 -3.001071613439876e-15    2    1    3    3
 0.07337083765764615    2    1    4    2
 0.1735132114202719    2    1    4    3
 2.650657471292561e-15    2    1    4    4
 0.4402979944326622    2    2    1    1
 0.432228152279635    2    2    2    2
 0.09111957208222583    2    2    3    2
 0.4500169532657656    2    2    3    3
 0.08329738676503401    2    2    4    1
 0.4570606478222773    2    2    4    4
 0.06848935889614288    3    1    2    1
 0.07338268459893074    3    1    3    1
 -1.328798182598234e-15    3    1    3    2
 -2.824129818890242e-15    3    1    3    3
 0.07299228415504062    3    1    4    2
 0.1094598750793982    3    1    4    3
 0.1058245311539998    3    2    1    1
 0.09111957208222583    3    2    2    2
 -1.295838436554675e-15    3    2    3    1
 0.08536993743230421    3    2    3    2
 0.1348927462046434    3    2    3    3
 0.07414752809189043    3    2    4    1
 -1.013078509970455e-15    3    2    4    3
 0.1421434926888585    3    2    4    4
 0.465572226024466    3    3    1    1
 -2.921274333544943e-15    3    3    2    1
 0.4500169532657657    3    3    2    2
 -2.898722928357245e-15    3    3    3    1
 0.1348927462046433    3    3    3    2
 0.5157458912700492    3    3    3    3
 0.1230729492632559    3    3    4    1
 -1.01047642475649e-15    3    3    4    2
 -3.927413949611491e-15    3    3    4    3
 0.5231167599763512    3    3    4    4
 0.08252870871129941    4    1    1    1
 0.08329738676503401    4    1    2    2
 0.07414752809189036    4    1    3    2
 0.1230729492632561    4    1    3    3
 0.07440194375757303    4    1    4    1
 1.155325835000554e-15    4    1    4    2
 1.082467449009528e-15    4    1    4    3
 0.122967462382397    4    1    4    4
 0.0733708376576462    4    2    2    1
 0.07299228415504061    4    2    3    1
 1.167468899332391e-15    4    2    4    1
 0.07559756706005916    4    2    4    2
 0.1146374461436235    4    2    4    3
 2.962907696968387e-15    4    2    4    4
 0.1735132114202719    4    3    2    1
 0.109459875079398    4    3    3    1
 -3.989863994746656e-15    4    3    3    3
 1.078998002057574e-15    4    3    4    1
 0.1146374461436234    4    3    4    2
 0.2394801496237763    4    3    4    3
 3.927413949611491e-15    4    3    4    4
 0.4795412383518153    4    4    1    1
 2.720046410331634e-15    4    4    2    1
 0.4570606478222773    4    4    2    2
 0.1421434926888583    4    4    3    2
 0.5231167599763509    4    4    3    3
 0.1229674623823969    4    4    4    1
 2.910432311820088e-15    4    4    4    2
 4.046242507715903e-15    4    4    4    3
 0.5383751954627564    4    4    4    4
 -0.8893905781865943    1    1  0  0
 -0.677353164682813    2    2  0  0
 -0.1431597044579136    3    2  0  0
 0.3055057618981221    3    3  0  0
 -0.08252870335753057    4    1  0  0
 -1.165734175856414e-15    4    2  0  0
 0.3230248863524766    4    4  0  0
 0.3317933481221393  0  0  0  0
