 &FCI NORB=   6,NELEC= 4,MS2=0,
  ORBSYM=1,1,1,1,1,1,
  ISYM=1,
 &END
 1.664502003811017    1    1    1    1
 -0.1110400179696279    1    1    2    1
 0.3680290908599182    1    1    2    2
 -0.1414438411927604    1    1    3    1
 0.01473974980887718    1    1    3    2
 0.3997521552255773    1    1    3    3
 0.3969499744969429    1    1    4    4
 0.3969499744969429    1    1    5    5
 0.05828417375538691    1    1    6    1
 -0.04319505917695064    1    1    6    2
 0.0142135905300483    1    1    6    3
 0.3643663769705669    1    1    6    6
 -0.1110400179696279    2    1    1    1
 0.01342857862948709    2    1    2    1
 0.006338323265546912    2    1    2    2
 0.01158930601374535    2    1    3    1
 -0.003352311737681973    2    1    3    2
 -0.01107815395060042    2    1    3    3
 -0.004060183333747404    2    1    4    4
 -0.004060183333747404    2    1    5    5
 -0.00964322241123026    2    1    6    1
 0.004703674190562738    2    1    6    2
 -0.003302408390688866    2    1    6    3
 0.003329625554289789    2    1    6    6
 0.3680290908599181    2    2    1    1
 0.006338323265546912    2    2    2    1
 0.4905229057905378    2    2    2    2
 -0.01563785792356501    2    2    3    1
 -0.0469833603991356    2    2    3    2
 0.2228757646870295    2    2    3    3
 0.2702975422545059    2    2    4    4
 0.2702975422545059    2    2    5    5
 -0.006770358959684877    2    2    6    1
 0.1286264162789462    2    2    6    2
 -0.05010716709618183    2    2    6    3
 0.4564794665858387    2    2    6    6
 -0.1414438411927605    3    1    1    1
 0.01158930601374535    3    1    2    1
 -0.015637857923565    3    1    2    2
 0.02284657203063643    3    1    3    1
 -0.0001722544428558632    3    1    3    2
 0.001707541200050178    3    1    3    3
 -0.004710725010721516    3    1    4    4
 -0.004710725010721516    3    1    5    5
 -0.003296309931051225    3    1    6    1
 0.0007871862289619274    3    1    6    2
 0.00459840913241023    3    1    6    3
 -0.01126195108495722    3    1    6    6
 0.01473974980887722    3    2    1    1
 -0.003352311737681973    3    2    2    1
 -0.04698336039913563    3    2    2    2
 -0.0001722544428558669    3    2    3    1
 0.01217770693178562    3    2    3    2
 0.007195617593788733    3    2    3    3
 0.005666790760861184    3    2    4    4
 0.005666790760861184    3    2    5    5
 0.001754338063217305    3    2    6    1
 -0.03346221000595892    3    2    6    2
 0.008389961216521863    3    2    6    3
 -0.041573149141633    3    2    6    6
 0.3997521552255773    3    3    1    1
 -0.01107815395060042    3    3    2    1
 0.2228757646870295    3    3    2    2
 0.001707541200050179    3    3    3    1
 0.007195617593788742    3    3    3    2
 0.339465839071906    3    3    3    3
 0.2825441868209571    3    3    4    4
 0.2825441868209571    3    3    5    5
 0.0106191547463474    3    3    6    1
 -0.01339138458431294    3    3    6    2
 0.03552626199853298    3    3    6    3
 0.2411183308795195    3    3    6    6
 0.01005440996573565    4    1    4    1
 0.007349544155930509    4    1    4    2
 0.01023236969127408    4    1    4    3
 -0.006217695631910857    4    1    6    4
 0.00734954415593051    4    2    4    1
 0.02304567084498824    4    2    4    2
 0.01902630659247494    4    2    4    3
 -0.01961025473539377    4    2    6    4
 0.01023236969127408    4    3    4    1
 0.01902630659247494    4    3    4    2
 0.04139934069424149    4    3    4    3
 -0.01404131069918916    4    3    6    4
 0.3969499744969429    4    4    1    1
 -0.004060183333747404    4    4    2    1
 0.2702975422545059    4    4    2    2
 -0.004710725010721516    4    4    3    1
 0.005666790760861184    4    4    3    2
 0.2825441868209571    4    4    3    3
 0.3131245659726231    4    4    4    4
 0.2793744337886092    4    4    5    5
 0.0005664418575108726    4    4    6    1
 -0.01631684542546985    4    4    6    2
 0.001612024177041663    4    4    6    3
 0.2689459430696391    4    4    6    6
 0.01005440996573565    5    1    5    1
 0.007349544155930509    5    1    5    2
 0.01023236969127408    5    1    5    3
 -0.006217695631910856    5    1    6    5
 0.00734954415593051    5    2    5    1
 0.02304567084498824    5    2    5    2
 0.01902630659247494    5    2    5    3
 -0.01961025473539377    5    2    6    5
 0.01023236969127408    5    3    5    1
 0.01902630659247494    5    3    5    2
 0.04139934069424149    5    3    5    3
 -0.01404131069918915    5    3    6    5
 0.01687506609200707    5    4    5    4
 0.3969499744969429    5    5    1    1
 -0.004060183333747404    5    5    2    1
 0.2702975422545059    5    5    2    2
 -0.004710725010721516    5    5    3    1
 0.005666790760861184    5    5    3    2
 0.2825441868209571    5    5    3    3
 0.2793744337886092    5    5    4    4
 0.3131245659726231    5    5    5    5
 0.0005664418575108726    5    5    6    1
 -0.01631684542546985    5    5    6    2
 0.001612024177041663    5    5    6    3
 0.2689459430696391    5    5    6    6
 0.05828417375538694    6    1    1    1
 -0.009643222411230258    6    1    2    1
 -0.006770358959684883    6    1    2    2
 -0.003296309931051223    6    1    3    1
 0.001754338063217308    6    1    3    2
 0.0106191547463474    6    1    3    3
 0.0005664418575108726    6    1    4    4
 0.0005664418575108726    6    1    5    5
 0.009366380064591312    6    1    6    1
 -8.00207821665521e-05    6    1    6    2
 0.004072343462952057    6    1    6    3
 -0.003120407200275969    6    1    6    6
 -0.04319505917695068    6    2    1    1
 0.00470367419056274    6    2    2    1
 0.1286264162789462    6    2    2    2
 0.0007871862289619373    6    2    3    1
 -0.03346221000595889    6    2    3    2
 -0.01339138458431293    6    2    3    3
 -0.01631684542546985    6    2    4    4
 -0.01631684542546985    6    2    5    5
 -8.002078216655471e-05    6    2    6    1
 0.1251807255622173    6    2    6    2
 -0.03045124347904484    6    2    6    3
 0.1351180406545019    6    2    6    6
 0.01421359053004834    6    3    1    1
 -0.003302408390688866    6    3    2    1
 -0.05010716709618185    6    3    2    2
 0.004598409132410232    6    3    3    1
 0.008389961216521849    6    3    3    2
 0.03552626199853302    6    3    3    3
 0.001612024177041663    6    3    4    4
 0.001612024177041663    6    3    5    5
 0.004072343462952063    6    3    6    1
 -0.03045124347904482    6    3    6    2
 0.02526429509963106    6    3    6    3
 -0.04276645000707769    6    3    6    6
 -0.006217695631910857    6    4    4    1
 -0.01961025473539377    6    4    4    2
 -0.01404131069918915    6    4    4    3
 0.02004542976414173    6    4    6    4
 -0.006217695631910857    6    5    5    1
 -0.01961025473539377    6    5    5    2
 -0.01404131069918915    6    5    5    3
 0.02004542976414173    6    5    6    5
 0.3643663769705669    6    6    1    1
 0.003329625554289784    6    6    2    1
 0.4564794665858387    6    6    2    2
 -0.01126195108495722    6    6    3    1
 -0.04157314914163297    6    6    3    2
 0.2411183308795195    6    6    3    3
 0.2689459430696391    6    6    4    4
 0.2689459430696391    6    6    5    5
 -0.003120407200275955    6    6    6    1
 0.1351180406545018    6    6    6    2
 -0.0427664500070778    6    6    6    3
 0.4558581751541823    6    6    6    6
 -4.774373023475845    1    1  0  0
 0.1047016951277431    2    1  0  0
 -1.499413622957963    2    2  0  0
 0.1693672455516991    3    1  0  0
 0.02909318184750686    3    2  0  0
 -1.131643366456134    3    3  0  0
 -1.138732227699537    4    4  0  0
 -1.138732227699537    5    5  0  0
 -0.04003978166102704    6    1  0  0
 -0.05187951965371343    6    2  0  0
 0.03502862695943808    6    3  0  0
 -0.9580316716814586    6    6  0  0
 0.9953176380940441  0  0  0  0
