 &FCI NORB=   2,NELEC= 2,MS2=0,
  ORBSYM=1,1,
  ISYM=1,
 &END
 0.542144671484791    1    1    1    1
 0.5508139257559087    1    1    2    2
 0.235788346342216    2    1    2    1
 0.5508139257559088    2    2    1    1
 0.5736827251464443    2    2    2    2
 -0.8827636027034845    1    1  0  0
 -0.6745287599655002    2    2  0  0
 0.3317933481221393  0  0  0  0
