 &FCI NORB=  11,NELEC= 4,MS2=0,
  ORBSYM=1,1,1,1,1,1,1,1,1,1,1,
  ISYM=1,
 &END
 1.646365189727998    1    1    1    1
 -0.09494210327314771    1    1    2    1
 0.3431778296829074    1    1    2    2
 -0.06245130335301682    1    1    3    1
 0.004160563168024094    1    1    3    2
 0.2357222009004834    1    1    3    3
 0.1895820086376889    1    1    4    4
 0.1895820086376891    1    1    5    5
 0.006607575374010612    1    1    6    1
 0.04834804963632905    1    1    6    2
 -0.04094305384500825    1    1    6    3
 0.1892744635360413    1    1    6    6
 -0.1228351317089921    1    1    7    1
 0.04024592950094143    1    1    7    2
 0.1089478543955929    1    1    7    3
 -0.04077871994191179    1    1    7    6
 0.3425855746516517    1    1    7    7
 0.08631441261722868    1    1    8    4
 -0.001571085084866624    1    1    8    5
 0.3760178980868904    1    1    8    8
 0.001571085084866507    1    1    9    4
 0.08631441261722879    1    1    9    5
 0.3760178980868903    1    1    9    9
 0.05918360225725294    1    1   10    1
 -0.06778575097754927    1    1   10    2
 0.004903755315643132    1    1   10    3
 -0.01083620124793876    1    1   10    6
 0.009201127974474324    1    1   10    7
 0.362937584445255    1    1   10   10
 -0.03424518919783583    1    1   11    1
 -0.006721739218795708    1    1   11    2
 0.007703374865826278    1    1   11    3
 -0.01564656313094702    1    1   11    6
 0.006611649095157626    1    1   11    7
 -0.03935720994062893    1    1   11   10
 0.2993097041704412    1    1   11   11
 -0.09494210327314767    2    1    1    1
 0.009480331718292346    2    1    2    1
 0.005652166423700228    2    1    2    2
 0.004733026324286388    2    1    3    1
 -0.001813724983279273    2    1    3    2
 -0.003207694263465355    2    1    3    3
 -0.0002220006676096831    2    1    4    4
 -0.0002220006676096836    2    1    5    5
 0.0005607747417591995    2    1    6    1
 0.002077667919395558    2    1    6    2
 0.0003495695613812634    2    1    6    3
 0.001198062047745161    2    1    6    6
 0.008619681961956937    2    1    7    1
 -0.001257088346621419    2    1    7    2
 -0.003639833701672158    2    1    7    3
 0.002228156595924635    2    1    7    6
 -0.007180463075217478    2    1    7    7
 -0.0007882207796166453    2    1    8    4
 1.434710464785676e-05    2    1    8    5
 -0.00354693142381128    2    1    8    8
 -1.434710464785535e-05    2    1    9    4
 -0.0007882207796166463    2    1    9    5
 -0.003546931423811279    2    1    9    9
 -0.007626229545053678    2    1   10    1
 0.002298312968419648    2    1   10    2
 -0.001620138535004121    2    1   10    3
 0.001089118676375421    2    1   10    6
 -0.001801042412794259    2    1   10    7
 -2.836014619518471e-05    2    1   10   10
 0.003611082884155262    2    1   11    1
 -0.002188864684140525    2    1   11    2
 -0.0001123961185883428    2    1   11    3
 -0.001285853615372986    2    1   11    6
 -0.0007601160436110095    2    1   11    7
 -0.001354740017474855    2    1   11   10
 0.007636798884063799    2    1   11   11
 0.3431778296829074    2    2    1    1
 0.005652166423700223    2    2    2    1
 0.476845653562813    2    2    2    2
 -0.005814905306660962    2    2    3    1
 -0.04087264520312886    2    2    3    2
 0.1604696860198099    2    2    3    3
 0.1702701179984417    2    2    4    4
 0.1702701179984419    2    2    5    5
 0.006372010131909708    2    2    6    1
 0.08955781538452844    2    2    6    2
 -0.03201036010899994    2    2    6    3
 0.218648194592851    2    2    6    6
 -0.01187339467872926    2    2    7    1
 0.01141258793947602    2    2    7    2
 0.03685456328770294    2    2    7    3
 0.008115103896068768    2    2    7    6
 0.1901459203199958    2    2    7    7
 0.0493490475180311    2    2    8    4
 -0.0008982457292709099    2    2    8    5
 0.2434592310509473    2    2    8    8
 0.0008982457292708453    2    2    9    4
 0.04934904751803121    2    2    9    5
 0.2434592310509472    2    2    9    9
 -0.007619219700530829    2    2   10    1
 0.05990239064968578    2    2   10    2
 -0.0316819027609494    2    2   10    3
 0.02502371110271273    2    2   10    6
 -0.0149294075284938    2    2   10    7
 0.3421340788921783    2    2   10   10
 9.820943891102778e-05    2    2   11    1
 -0.08979093701189049    2    2   11    2
 0.01507965508804023    2    2   11    3
 -0.07011998060230183    2    2   11    6
 -0.006421730072984199    2    2   11    7
 -0.0620466827170356    2    2   11   10
 0.5482718882147031    2    2   11   11
 -0.06245130335301683    3    1    1    1
 0.00473302632428639    3    1    2    1
 -0.005814905306660959    3    1    2    2
 0.004432338336359093    3    1    3    1
 0.0003742946555045492    3    1    3    2
 0.001558022744209865    3    1    3    3
 0.0001351705671371841    3    1    4    4
 0.0001351705671371841    3    1    5    5
 -0.001344813478729723    3    1    6    1
 -0.001754420814135901    3    1    6    2
 0.0001493458904158002    3    1    6    3
 -0.001167333331782748    3    1    6    6
 0.008393406234146649    3    1    7    1
 -0.0006694824488093557    3    1    7    2
 0.0007118425635147688    3    1    7    3
 -0.0006811073803024663    3    1    7    6
 0.001314860519035634    3    1    7    7
 -0.0002407268045791106    3    1    8    4
 4.381681815747671e-06    3    1    8    5
 -0.001565785620914208    3    1    8    8
 -4.381681815747037e-06    3    1    9    4
 -0.0002407268045791109    3    1    9    5
 -0.001565785620914208    3    1    9    9
 -0.001436260139178879    3    1   10    1
 0.0008722267352401886    3    1   10    2
 0.001282774722218533    3    1   10    3
 0.0002299773027435979    3    1   10    6
 0.001358406649238457    3    1   10    7
 -0.003038702266614247    3    1   10   10
 0.002038184947688085    3    1   11    1
 0.0003643921698773831    3    1   11    2
 -0.0002702509282014611    3    1   11    3
 0.0006494721296935817    3    1   11    6
 -0.0001555428621480138    3    1   11    7
 0.001652539777884111    3    1   11   10
 -0.005020138602233539    3    1   11   11
 0.004160563168024079    3    2    1    1
 -0.001813724983279273    3    2    2    1
 -0.04087264520312887    3    2    2    2
 0.0003742946555045469    3    2    3    1
 0.007686963877189095    3    2    3    2
 0.005335487513047404    3    2    3    3
 0.001553970517238472    3    2    4    4
 0.001553970517238474    3    2    5    5
 -0.0009909330575861371    3    2    6    1
 -0.01211792579668876    3    2    6    2
 0.001256536143889387    3    2    6    3
 -0.0102581699677259    3    2    6    6
 0.0005517454922705175    3    2    7    1
 0.0009816879471028211    3    2    7    2
 0.001597787682413919    3    2    7    3
 -0.003592961961318706    3    2    7    6
 0.005961982871054126    3    2    7    7
 0.0003698968423882995    3    2    8    4
 -6.732820097990398e-06    3    2    8    5
 0.001676529821086831    3    2    8    8
 6.732820097990005e-06    3    2    9    4
 0.0003698968423883002    3    2    9    5
 0.001676529821086831    3    2    9    9
 0.001476774495261122    3    2   10    1
 -0.01669766057821827    3    2   10    2
 0.004758043415206066    3    2   10    3
 -0.002842128239661377    3    2   10    6
 0.001687950065617311    3    2   10    7
 -0.01631746815505158    3    2   10   10
 -0.0003184846217826826    3    2   11    1
 0.01488336995622924    3    2   11    2
 -0.002749912044417018    3    2   11    3
 0.01115677994920218    3    2   11    6
 0.00121331017438547    3    2   11    7
 0.007790291932282232    3    2   11   10
 -0.05718144209276044    3    2   11   11
 0.2357222009004834    3    3    1    1
 -0.003207694263465345    3    3    2    1
 0.1604696860198099    3    3    2    2
 0.001558022744209867    3    3    3    1
 0.0053354875130474    3    3    3    2
 0.209952165073645    3    3    3    3
 0.1548277037332483    3    3    4    4
 0.1548277037332485    3    3    5    5
 -0.002211718551083479    3    3    6    1
 0.00836452629148567    3    3    6    2
 -0.006761688472539613    3    3    6    3
 0.1308634936731643    3    3    6    6
 0.001769074887279493    3    3    7    1
 0.0097828574866353    3    3    7    2
 0.03556956206425461    3    3    7    3
 -0.02551050333973615    3    3    7    6
 0.2145885058369364    3    3    7    7
 0.02958481179553599    3    3    8    4
 -0.0005384993669211931    3    3    8    5
 0.1913642666716768    3    3    8    8
 0.0005384993669211497    3    3    9    4
 0.02958481179553606    3    3    9    5
 0.1913642666716768    3    3    9    9
 0.00493260118449961    3    3   10    1
 -0.01561362416609327    3    3   10    2
 0.02052499099678766    3    3   10    3
 0.003851138240876361    3    3   10    6
 0.01421066603563292    3    3   10    7
 0.1833772203760284    3    3   10   10
 -0.0007635679747813154    3    3   11    1
 -0.005279998651889366    3    3   11    2
 0.004416138369845196    3    3   11    3
 -0.002083441781896308    3    3   11    6
 0.0004265417313688933    3    3   11    7
 -0.003659303743076368    3    3   11   10
 0.1538187738941964    3    3   11   11
 0.0003775519740299739    4    1    4    1
 0.0008044122464947292    4    1    4    2
 0.0009754018271972509    4    1    4    3
 -0.0005378687749082055    4    1    6    4
 0.000440442366695951    4    1    7    4
 0.00189995227490771    4    1    8    1
 0.001509542790863451    4    1    8    2
 0.001220894840811739    4    1    8    3
 -0.000341357597983879    4    1    8    6
 0.002183662389663397    4    1    8    7
 3.458271441066161e-05    4    1    9    1
 2.747652555095907e-05    4    1    9    2
 2.222258851596369e-05    4    1    9    3
 -6.213352029360628e-06    4    1    9    6
 3.974677353129921e-05    4    1    9    7
 -0.0007907841632010503    4    1   10    4
 -0.001876173141359234    4    1   10    8
 -3.414988933642202e-05    4    1   10    9
 1.558600277070094e-06    4    1   11    4
 0.0002604528949527563    4    1   11    8
 4.74073386081165e-06    4    1   11    9
 0.0008044122464947289    4    2    4    1
 0.008303862316351548    4    2    4    2
 0.008074793924150912    4    2    4    3
 -0.00836295529367524    4    2    6    4
 -0.002995026504003119    4    2    7    4
 0.003199963910692778    4    2    8    1
 0.009308183535665489    4    2    8    2
 0.003868714654543507    4    2    8    3
 0.0005786937582789534    4    2    8    6
 0.009802365866872033    4    2    8    7
 5.824537779681484e-05    4    2    9    1
 0.0001694264941005403    4    2    9    2
 7.041790249227517e-05    4    2    9    3
 1.053331772492265e-05    4    2    9    6
 0.0001784215444776572    4    2    9    7
 -0.005621495729715436    4    2   10    4
 -0.0113055186850345    4    2   10    8
 -0.0002057817604749898    4    2   10    9
 -5.085354384591994e-05    4    2   11    4
 0.002469644272037089    4    2   11    8
 4.495218310677661e-05    4    2   11    9
 0.0009754018271972507    4    3    4    1
 0.008074793924150911    4    3    4    2
 0.02277592514448813    4    3    4    3
 -0.009212611040223008    4    3    6    4
 -0.006493698215918609    4    3    7    4
 0.003944462475986339    4    3    8    1
 0.007285969304519177    4    3    8    2
 0.006719098314212029    4    3    8    3
 -0.002919523703169496    4    3    8    6
 0.01997991684909986    4    3    8    7
 7.17966556908597e-05    4    3    9    1
 0.0001326183815197622    4    3    9    2
 0.0001223002604677813    4    3    9    3
 -5.314083715433226e-05    4    3    9    6
 0.0003636721655941587    4    3    9    7
 -0.004824279913171792    4    3   10    4
 -0.0101285475179629    4    3   10    8
 -0.0001843586656541515    4    3   10    9
 -0.002464882634671185    4    3   11    4
 0.0003251689017559024    4    3   11    8
 5.918687228709425e-06    4    3   11    9
 0.1895820086376888    4    4    1    1
 -0.0002220006676096863    4    4    2    1
 0.1702701179984417    4    4    2    2
 0.0001351705671371892    4    4    3    1
 0.001553970517238479    4    4    3    2
 0.1548277037332483    4    4    3    3
 0.1602868465283088    4    4    4    4
 0.1412428218226845    4    4    5    5
 -0.0001666401720090973    4    4    6    1
 0.005626265266040823    4    4    6    2
 -0.01194181324420466    4    4    6    3
 0.1382657280125171    4    4    6    6
 -0.0005600670177295887    4    4    7    1
 0.004771626427810196    4    4    7    2
 0.01796448396233795    4    4    7    3
 -0.002464072100381846    4    4    7    6
 0.1637398858132552    4    4    7    7
 0.02053182203496549    4    4    8    4
 -0.000371960699008421    4    4    8    5
 0.1782194475900568    4    4    8    8
 0.0003737178807821629    4    4    9    4
 0.02043528358894233    4    4    9    5
 0.0002549701038906532    4    4    9    8
 0.1642161936239095    4    4    9    9
 -8.81610924937863e-05    4    4   10    1
 -0.01014626788736584    4    4   10    2
 -0.0007559382226944543    4    4   10    3
 0.005979667708437497    4    4   10    6
 -0.0004335491720887444    4    4   10    7
 0.1730040894977425    4    4   10   10
 -6.741047893964105e-05    4    4   11    1
 -0.001487083576472748    4    4   11    2
 -0.001169743978878377    4    4   11    3
 -0.002908760956605293    4    4   11    6
 0.0002476331139178011    4    4   11    7
 -0.003876867312683987    4    4   11   10
 0.1644086192120991    4    4   11   11
 0.000377551974029975    5    1    5    1
 0.0008044122464947307    5    1    5    2
 0.0009754018271972529    5    1    5    3
 -0.0005378687749082066    5    1    6    5
 0.000440442366695952    5    1    7    5
 -3.458271441066527e-05    5    1    8    1
 -2.747652555096142e-05    5    1    8    2
 -2.22225885159655e-05    5    1    8    3
 6.213352029361044e-06    5    1    8    6
 -3.974677353130243e-05    5    1    8    7
 0.001899952274907712    5    1    9    1
 0.001509542790863452    5    1    9    2
 0.00122089484081174    5    1    9    3
 -0.0003413575979838792    5    1    9    6
 0.002183662389663401    5    1    9    7
 -0.0007907841632010521    5    1   10    5
 3.414988933642452e-05    5    1   10    8
 -0.001876173141359234    5    1   10    9
 1.55860027707029e-06    5    1   11    5
 -4.740733860812314e-06    5    1   11    8
 0.000260452894952757    5    1   11    9
 0.0008044122464947308    5    2    5    1
 0.00830386231635156    5    2    5    2
 0.008074793924150919    5    2    5    3
 -0.008362955293675249    5    2    6    5
 -0.002995026504003117    5    2    7    5
 -5.824537779681767e-05    5    2    8    1
 -0.0001694264941005459    5    2    8    2
 -7.041790249227712e-05    5    2    8    3
 -1.053331772492409e-05    5    2    8    6
 -0.0001784215444776619    5    2    8    7
 0.00319996391069278    5    2    9    1
 0.009308183535665494    5    2    9    2
 0.003868714654543509    5    2    9    3
 0.0005786937582789534    5    2    9    6
 0.009802365866872028    5    2    9    7
 -0.005621495729715447    5    2   10    5
 0.0002057817604749941    5    2   10    8
 -0.0113055186850345    5    2   10    9
 -5.085354384591972e-05    5    2   11    5
 -4.495218310677883e-05    5    2   11    8
 0.002469644272037093    5    2   11    9
 0.0009754018271972527    5    3    5    1
 0.008074793924150921    5    3    5    2
 0.02277592514448816    5    3    5    3
 -0.009212611040223017    5    3    6    5
 -0.006493698215918601    5    3    7    5
 -7.179665569086216e-05    5    3    8    1
 -0.0001326183815197652    5    3    8    2
 -0.0001223002604677854    5    3    8    3
 5.314083715433458e-05    5    3    8    6
 -0.0003636721655941642    5    3    8    7
 0.003944462475986342    5    3    9    1
 0.007285969304519185    5    3    9    2
 0.006719098314212045    5    3    9    3
 -0.002919523703169505    5    3    9    6
 0.01997991684909986    5    3    9    7
 -0.004824279913171797    5    3   10    5
 0.0001843586656541528    5    3   10    8
 -0.0101285475179629    5    3   10    9
 -0.002464882634671186    5    3   11    5
 -5.918687228709859e-06    5    3   11    8
 0.000325168901755903    5    3   11    9
 0.009522012352812262    5    4    5    4
 -8.785908868770803e-07    5    4    8    4
 4.826922301158726e-05    5    4    8    5
 -0.0002549701038907638    5    4    8    8
 4.82692230115884e-05    5    4    9    4
 8.785908868519268e-07    5    4    9    5
 0.00700162698307366    5    4    9    8
 0.0002549701038906732    5    4    9    9
 0.1895820086376891    5    5    1    1
 -0.0002220006676096906    5    5    2    1
 0.1702701179984419    5    5    2    2
 0.0001351705671371892    5    5    3    1
 0.001553970517238476    5    5    3    2
 0.1548277037332485    5    5    3    3
 0.1412428218226845    5    5    4    4
 0.1602868465283092    5    5    5    5
 -0.0001666401720090943    5    5    6    1
 0.00562626526604084    5    5    6    2
 -0.01194181324420467    5    5    6    3
 0.1382657280125173    5    5    6    6
 -0.0005600670177295921    5    5    7    1
 0.004771626427810215    5    5    7    2
 0.01796448396233797    5    5    7    3
 -0.00246407210038181    5    5    7    6
 0.1637398858132554    5    5    7    7
 0.02043528358894231    5    5    8    4
 -0.0003737178807821919    5    5    8    5
 0.1642161936239098    5    5    8    8
 0.0003719606990083817    5    5    9    4
 0.02053182203496562    5    5    9    5
 -0.0002549701038906879    5    5    9    8
 0.1782194475900569    5    5    9    9
 -8.816109249377849e-05    5    5   10    1
 -0.01014626788736588    5    5   10    2
 -0.0007559382226944335    5    5   10    3
 0.005979667708437511    5    5   10    6
 -0.0004335491720888207    5    5   10    7
 0.1730040894977428    5    5   10   10
 -6.741047893964159e-05    5    5   11    1
 -0.001487083576472779    5    5   11    2
 -0.001169743978878363    5    5   11    3
 -0.002908760956605307    5    5   11    6
 0.000247633113917756    5    5   11    7
 -0.00387686731268394    5    5   11   10
 0.1644086192120993    5    5   11   11
 0.006607575374010651    6    1    1    1
 0.0005607747417591983    6    1    2    1
 0.00637201013190971    6    1    2    2
 -0.001344813478729724    6    1    3    1
 -0.0009909330575861379    6    1    3    2
 -0.002211718551083476    6    1    3    3
 -0.0001666401720090941    6    1    4    4
 -0.0001666401720090943    6    1    5    5
 0.001331323244647805    6    1    6    1
 0.002096122638906222    6    1    6    2
 -1.323034251776522e-05    6    1    6    3
 0.001423417203772905    6    1    6    6
 -0.002733714666704289    6    1    7    1
 -3.078672608653337e-05    6    1    7    2
 -0.001732252670647656    6    1    7    3
 0.0013730121489    6    1    7    6
 -0.003598007753012118    6    1    7    7
 -0.0001318815956368933    6    1    8    4
 2.400493748273225e-06    6    1    8    5
 -0.0002551248152196455    6    1    8    8
 -2.40049374827313e-06    6    1    9    4
 -0.0001318815956368934    6    1    9    5
 -0.0002551248152196454    6    1    9    9
 -0.002360384823778431    6    1   10    1
 0.0002071142382030807    6    1   10    2
 -0.001406788965524763    6    1   10    3
 0.0001466648445753755    6    1   10    6
 -0.001569695832028588    6    1   10    7
 0.002197848130245506    6    1   10   10
 3.870849183678458e-05    6    1   11    1
 -0.001093835852481852    6    1   11    2
 0.0001507198000037006    6    1   11    3
 -0.0009322395768913713    6    1   11    6
 -0.0001836769439243318    6    1   11    7
 -0.001718627752422017    6    1   11   10
 0.006497088069258395    6    1   11   11
 0.04834804963632907    6    2    1    1
 0.002077667919395558    6    2    2    1
 0.08955781538452839    6    2    2    2
 -0.001754420814135899    6    2    3    1
 -0.01211792579668876    6    2    3    2
 0.008364526291485652    6    2    3    3
 0.005626265266040839    6    2    4    4
 0.005626265266040847    6    2    5    5
 0.002096122638906222    6    2    6    1
 0.03085114685318447    6    2    6    2
 -0.006261062830500592    6    2    6    3
 0.01621983761052661    6    2    6    6
 -0.003341729857506154    6    2    7    1
 0.003599494780379949    6    2    7    2
 0.004670560045121882    6    2    7    3
 -0.001214108340911773    6    2    7    6
 0.01158227564590975    6    2    7    7
 0.008077085568017004    6    2    8    4
 -0.0001470181894346811    6    2    8    5
 0.02188813127779074    6    2    8    8
 0.0001470181894346728    6    2    9    4
 0.008077085568017013    6    2    9    5
 0.02188813127779074    6    2    9    9
 -0.002390134793827815    6    2   10    1
 0.01811679521738357    6    2   10    2
 -0.005899561416192878    6    2   10    3
 0.007205937527419074    6    2   10    6
 -0.002267490483886484    6    2   10    7
 0.04494149496500174    6    2   10   10
 9.129134260935098e-05    6    2   11    1
 -0.03873757197193837    6    2   11    2
 0.007624136127466158    6    2   11    3
 -0.02164584893669593    6    2   11    6
 -0.001265020344674485    6    2   11    7
 -0.02509659205541388    6    2   11   10
 0.1163571218251142    6    2   11   11
 -0.0409430538450082    6    3    1    1
 0.0003495695613812567    6    3    2    1
 -0.03201036010899998    6    3    2    2
 0.0001493458904158039    6    3    3    1
 0.001256536143889383    6    3    3    2
 -0.006761688472539601    6    3    3    3
 -0.01194181324420467    6    3    4    4
 -0.01194181324420469    6    3    5    5
 -1.323034251776801e-05    6    3    6    1
 -0.006261062830500611    6    3    6    2
 0.008476848977482311    6    3    6    3
 -0.01082063550390375    6    3    6    6
 0.0006134904179975194    6    3    7    1
 -0.00249256213974148    6    3    7    2
 -0.01180740225194852    6    3    7    3
 -0.0006480035789431723    6    3    7    6
 -0.0188779991680154    6    3    7    7
 -0.008222775900815393    6    3    8    4
 0.000149670028240372    6    3    8    5
 -0.02441463401104292    6    3    8    8
 -0.000149670028240364    6    3    9    4
 -0.008222775900815401    6    3    9    5
 -0.02441463401104291    6    3    9    9
 -0.0004635094324355336    6    3   10    1
 0.0009590702422112567    6    3   10    2
 0.002774247238446939    6    3   10    3
 -0.002202039271689504    6    3   10    6
 -0.0002374754861151135    6    3   10    7
 -0.02633325481389427    6    3   10   10
 0.0001508170939543608    6    3   11    1
 0.00723927133671244    6    3   11    2
 -5.968960009747381e-05    6    3   11    3
 0.004285474266363355    6    3   11    6
 -0.0004700056085538023    6    3   11    7
 0.005705247437280063    6    3   11   10
 -0.03432825661725288    6    3   11   11
 -0.0005378687749082055    6    4    4    1
 -0.00836295529367524    6    4    4    2
 -0.009212611040223008    6    4    4    3
 0.0145863255056241    6    4    6    4
 0.005954625670474114    6    4    7    4
 -0.002169762051180744    6    4    8    1
 -0.005449017661891232    6    4    8    2
 -0.003749093491677837    6    4    8    3
 -0.002583497515034613    6    4    8    6
 -0.01008865394965671    6    4    8    7
 -3.949376115709271e-05    6    4    9    1
 -9.918239742574795e-05    6    4    9    2
 -6.824057174166219e-05    6    4    9    3
 -4.70245268384135e-05    6    4    9    6
 -0.00018363252747806    6    4    9    7
 0.004969034315594692    6    4   10    4
 0.008902297339234031    6    4   10    8
 0.0001620385998887795    6    4   10    9
 0.002111883304309505    6    4   11    4
 -0.001697319312253205    6    4   11    8
 -3.089441235686258e-05    6    4   11    9
 -0.0005378687749082063    6    5    5    1
 -0.008362955293675249    6    5    5    2
 -0.009212611040223015    6    5    5    3
 0.01458632550562412    6    5    6    5
 0.005954625670474118    6    5    7    5
 3.949376115709355e-05    6    5    8    1
 9.918239742574809e-05    6    5    8    2
 6.824057174166311e-05    6    5    8    3
 4.702452683841524e-05    6    5    8    6
 0.0001836325274780659    6    5    8    7
 -0.002169762051180745    6    5    9    1
 -0.005449017661891235    6    5    9    2
 -0.003749093491677841    6    5    9    3
 -0.002583497515034608    6    5    9    6
 -0.01008865394965671    6    5    9    7
 0.0049690343155947    6    5   10    5
 -0.0001620385998887821    6    5   10    8
 0.008902297339234038    6    5   10    9
 0.002111883304309507    6    5   11    5
 3.089441235686264e-05    6    5   11    8
 -0.001697319312253204    6    5   11    9
 0.1892744635360414    6    6    1    1
 0.001198062047745161    6    6    2    1
 0.218648194592851    6    6    2    2
 -0.001167333331782745    6    6    3    1
 -0.0102581699677259    6    6    3    2
 0.1308634936731643    6    6    3    3
 0.1382657280125171    6    6    4    4
 0.1382657280125173    6    6    5    5
 0.001423417203772904    6    6    6    1
 0.01621983761052664    6    6    6    2
 -0.01082063550390375    6    6    6    3
 0.1620988664764249    6    6    6    6
 -0.002763532759948838    6    6    7    1
 0.001799608465451106    6    6    7    2
 0.01721306756749152    6    6    7    3
 0.007587998894878086    6    6    7    6
 0.1445501425219874    6    6    7    7
 0.01791780307316559    6    6    8    4
 -0.0003261378060540557    6    6    8    5
 0.1595663663148968    6    6    8    8
 0.0003261378060540226    6    6    9    4
 0.01791780307316565    6    6    9    5
 0.1595663663148968    6    6    9    9
 -0.001559480317024472    6    6   10    1
 0.01388057413491969    6    6   10    2
 -0.009488209939553627    6    6   10    3
 0.004072141846101596    6    6   10    6
 -0.003863430299589243    6    6   10    7
 0.1893994449295987    6    6   10   10
 9.814952993944764e-05    6    6   11    1
 -0.01417047566572841    6    6   11    2
 0.001395843967493447    6    6   11    3
 -0.01658682329441701    6    6   11    6
 -0.001738948905049106    6    6   11    7
 -0.009694671506169865    6    6   11   10
 0.2327856196376281    6    6   11   11
 -0.122835131708992    7    1    1    1
 0.008619681961956959    7    1    2    1
 -0.01187339467872927    7    1    2    2
 0.008393406234146658    7    1    3    1
 0.0005517454922705139    7    1    3    2
 0.001769074887279493    7    1    3    3
 -0.0005600670177295929    7    1    4    4
 -0.0005600670177295939    7    1    5    5
 -0.00273371466670429    7    1    6    1
 -0.003341729857506154    7    1    6    2
 0.0006134904179975349    7    1    6    3
 -0.002763532759948813    7    1    6    6
 0.01621575894431947    7    1    7    1
 -0.00145464046947191    7    1    7    2
 0.0004458986695611742    7    1    7    3
 -0.00104706002609166    7    1    7    6
 0.0008420930516252808    7    1    7    7
 -0.001262659848503946    7    1    8    4
 2.298279041811558e-05    7    1    8    5
 -0.005247470231819222    7    1    8    8
 -2.298279041811355e-05    7    1    9    4
 -0.001262659848503947    7    1    9    5
 -0.005247470231819219    7    1    9    9
 -0.002126468797075315    7    1   10    1
 0.002545510864253737    7    1   10    2
 0.002263058467919507    7    1   10    3
 0.0005758332658494965    7    1   10    6
 0.00249034491246215    7    1   10    7
 -0.00755806727180226    7    1   10   10
 0.00362796664182017    7    1   11    1
 0.0003035129116534074    7    1   11    2
 -0.0004207538662690459    7    1   11    3
 0.001031551040120093    7    1   11    6
 -0.0002850347662665173    7    1   11    7
 0.003170286507842255    7    1   11   10
 -0.009699703431201068    7    1   11   11
 0.04024592950094142    7    2    1    1
 -0.001257088346621423    7    2    2    1
 0.01141258793947601    7    2    2    2
 -0.0006694824488093558    7    2    3    1
 0.0009816879471028206    7    2    3    2
 0.009782857486635304    7    2    3    3
 0.00477162642781021    7    2    4    4
 0.004771626427810218    7    2    5    5
 -3.078672608653302e-05    7    2    6    1
 0.003599494780379942    7    2    6    2
 -0.002492562139741498    7    2    6    3
 0.001799608465451093    7    2    6    6
 -0.001454640469471909    7    2    7    1
 0.003511359996309013    7    2    7    2
 0.007185595112610754    7    2    7    3
 -0.004081180843435915    7    2    7    6
 0.01532763031483105    7    2    7    7
 0.006887067601973496    7    2    8    4
 -0.0001253576182683655    7    2    8    5
 0.01831829536739262    7    2    8    8
 0.000125357618268358    7    2    9    4
 0.006887067601973502    7    2    9    5
 0.01831829536739261    7    2    9    9
 0.00060667145641518    7    2   10    1
 -0.006803228005511783    7    2   10    2
 0.0006391142431410937    7    2   10    3
 0.0002318312722244783    7    2   10    6
 -0.0004811920518004399    7    2   10    7
 0.01394943576273044    7    2   10   10
 -0.0004663947112124658    7    2   11    1
 -0.002509434936156652    7    2   11    2
 0.0007147735474342422    7    2   11    3
 -0.0004813084197155051    7    2   11    6
 0.0002614796371825462    7    2   11    7
 -0.003828636279091162    7    2   11   10
 0.008021299249618852    7    2   11   11
 0.108947854395593    7    3    1    1
 -0.003639833701672168    7    3    2    1
 0.0368545632877029    7    3    2    2
 0.0007118425635147644    7    3    3    1
 0.001597787682413919    7    3    3    2
 0.0355695620642546    7    3    3    3
 0.01796448396233793    7    3    4    4
 0.01796448396233796    7    3    5    5
 -0.001732252670647655    7    3    6    1
 0.004670560045121871    7    3    6    2
 -0.01180740225194851    7    3    6    3
 0.01721306756749149    7    3    6    6
 0.0004458986695611705    7    3    7    1
 0.007185595112610772    7    3    7    2
 0.03790839376925464    7    3    7    3
 -0.01106964438524638    7    3    7    6
 0.06417002301334485    7    3    7    7
 0.02096660029635147    7    3    8    4
 -0.0003816316650619581    7    3    8    5
 0.05518947110910791    7    3    8    8
 0.0003816316650619368    7    3    9    4
 0.02096660029635149    7    3    9    5
 0.05518947110910791    7    3    9    9
 0.005005452856867777    7    3   10    1
 -0.009256578663348473    7    3   10    2
 0.007644845837752428    7    3   10    3