 &FCI NORB=   4,NELEC= 4,MS2=0,
  ORBSYM=1,1,1,1,
  ISYM=1,
 &END
 1.66450200381102    1    1    1    1
 -0.1110400179696073    1    1    2    1
 0.3680290908599158    1    1    2    2
 0.3969499744969425    1    1    3    3
 -0.1069310290330564    1    1    4    1
 0.04557353427537372    1    1    4    2
 0.3594549248143552    1    1    4    4
 -0.1110400179696074    2    1    1    1
 0.01342857862948385    2    1    2    1
 0.006338323265550499    2    1    2    2
 -0.004060183333746754    2    1    3    3
 0.01327627482305413    2    1    4    1
 -0.005615798377500055    2    1    4    2
 0.00360637767184307    2    1    4    4
 0.3680290908599156    2    2    1    1
 0.006338323265550506    2    2    2    1
 0.4905229057905611    2    2    2    2
 0.270297542254505    2    2    3    3
 0.0004341077202578821    2    2    4    1
 -0.1368645730062383    2    2    4    2
 0.4585832928967756    2    2    4    4
 0.01005440996573565    3    1    3    1
 0.007349544155928984    3    1    3    2
 0.009591844013887249    3    1    4    3
 0.007349544155928987    3    2    3    1
 0.02304567084498277    3    2    3    2
 0.02530074710494826    3    2    4    3
 0.3969499744969422    3    3    1    1
 -0.00406018333374671    3    3    2    1
 0.2702975422545051    3    3    2    2
 0.3131245659726228    3    3    3    3
 -0.00228625695193711    3    3    4    1
 0.01725227118999155    3    3    4    2
 0.2697282034516276    3    3    4    4
 -0.1069310290330562    4    1    1    1
 0.01327627482305409    4    1    2    1
 0.0004341077202578904    4    1    2    2
 -0.002286256951937008    4    1    3    3
 0.01353562686941892    4    1    4    1
 -0.0009740659010416432    4    1    4    2
 -0.000991557151865344    4    1    4    4
 0.04557353427537384    4    2    1    1
 -0.005615798377500055    4    2    2    1
 -0.1368645730062386    4    2    2    2
 0.01725227118999137    4    2    3    3
 -0.0009740659010416361    4    2    4    1
 0.1325940556694383    4    2    4    2
 -0.1408285674310575    4    2    4    4
 0.00959184401388726    4    3    3    1
 0.02530074710494825    4    3    3    2
 0.03276553050351698    4    3    4    3
 0.3594549248143558    4    4    1    1
 0.003606377671842885    4    4    2    1
 0.4585832928967756    4    4    2    2
 0.2697282034516271    4    4    3    3
 -0.000991557151865702    4    4    4    1
 -0.1408285674310583    4    4    4    2
 0.4582460217545582    4    4    4    4
 -4.774373023475851    1    1  0  0
 0.1047016951277191    2    1  0  0
 -1.499413622957973    2    2  0  0
 -1.138732227699534    3    3  0  0
 0.1004470153227432    4    1  0  0
 0.05899378427206294    4    2  0  0
 -1.006579196979217    4    4  0  0
 0.9953176380940441  0  0  0  0
