 &FCI NORB=   6,NELEC= 4,MS2=0,
  ORBSYM=1,1,1,1,1,1,
  ISYM=1,
 &END
 1.66450200381102    1    1    1    1
 -0.1110400179696073    1    1    2    1
 0.3680290908599156    1    1    2    2
 -0.1414438411927785    1    1    3    1
 0.01473974980887093    1    1    3    2
 0.3997521552255835    1    1    3    3
 0.3969499744969424    1    1    4    4
 0.3969499744969424    1    1    5    5
 0.05828417375538843    1    1    6    1
 -0.04319505917695311    1    1    6    2
 0.01421359053003999    1    1    6    3
 0.3643663769705646    1    1    6    6
 -0.1110400179696073    2    1    1    1
 0.01342857862948385    2    1    2    1
 0.006338323265550512    2    1    2    2
 0.01158930601374385    2    1    3    1
 -0.00335231173767909    2    1    3    2
 -0.01107815395060231    2    1    3    3
 -0.004060183333746741    2    1    4    4
 -0.004060183333746741    2    1    5    5
 -0.00964322241122997    2    1    6    1
 0.004703674190563471    2    1    6    2
 -0.003302408390688546    2    1    6    3
 0.003329625554292087    2    1    6    6
 0.3680290908599155    2    2    1    1
 0.006338323265550504    2    2    2    1
 0.490522905790561    2    2    2    2
 -0.01563785792356452    2    2    3    1
 -0.04698336039909144    2    2    3    2
 0.22287576468701    2    2    3    3
 0.2702975422545048    2    2    4    4
 0.2702975422545048    2    2    5    5
 -0.006770358959684735    2    2    6    1
 0.1286264162789632    2    2    6    2
 -0.05010716709615726    2    2    6    3
 0.4564794665858548    2    2    6    6
 -0.1414438411927785    3    1    1    1
 0.01158930601374385    3    1    2    1
 -0.0156378579235645    3    1    2    2
 0.02284657203064039    3    1    3    1
 -0.0001722544428591827    3    1    3    2
 0.001707541200048742    3    1    3    3
 -0.004710725010722341    3    1    4    4
 -0.004710725010722341    3    1    5    5
 -0.003296309931052948    3    1    6    1
 0.0007871862289618847    3    1    6    2
 0.004598409132409654    3    1    6    3
 -0.01126195108495722    3    1    6    6
 0.01473974980887093    3    2    1    1
 -0.003352311737679096    3    2    2    1
 -0.04698336039909146    3    2    2    2
 -0.0001722544428591887    3    2    3    1
 0.01217770693176612    3    2    3    2
 0.007195617593773623    3    2    3    3
 0.005666790760858599    3    2    4    4
 0.005666790760858599    3    2    5    5
 0.001754338063214387    3    2    6    1
 -0.03346221000593382    3    2    6    2
 0.008389961216500303    3    2    6    3
 -0.0415731491415952    3    2    6    6
 0.3997521552255834    3    3    1    1
 -0.0110781539506023    3    3    2    1
 0.22287576468701    3    3    2    2
 0.001707541200048755    3    3    3    1
 0.007195617593773596    3    3    3    2
 0.3394658390719144    3    3    3    3
 0.2825441868209587    3    3    4    4
 0.2825441868209587    3    3    5    5
 0.0106191547463479    3    3    6    1
 -0.01339138458433159    3    3    6    2
 0.03552626199853207    3    3    6    3
 0.241118330879501    3    3    6    6
 0.01005440996573566    4    1    4    1
 0.007349544155928977    4    1    4    2
 0.01023236969127508    4    1    4    3
 -0.006217695631911029    4    1    6    4
 0.007349544155928978    4    2    4    1
 0.02304567084498275    4    2    4    2
 0.01902630659247163    4    2    4    3
 -0.01961025473539195    4    2    6    4
 0.01023236969127508    4    3    4    1
 0.01902630659247163    4    3    4    2
 0.04139934069424656    4    3    4    3
 -0.01404131069919259    4    3    6    4
 0.3969499744969424    4    4    1    1
 -0.004060183333746736    4    4    2    1
 0.2702975422545048    4    4    2    2
 -0.004710725010722338    4    4    3    1
 0.005666790760858608    4    4    3    2
 0.2825441868209587    4    4    3    3
 0.3131245659726224    4    4    4    4
 0.2793744337886087    4    4    5    5
 0.0005664418575109558    4    4    6    1
 -0.01631684542546994    4    4    6    2
 0.001612024177038961    4    4    6    3
 0.2689459430696384    4    4    6    6
 0.01005440996573566    5    1    5    1
 0.007349544155928978    5    1    5    2
 0.01023236969127508    5    1    5    3
 -0.006217695631911029    5    1    6    5
 0.007349544155928978    5    2    5    1
 0.02304567084498275    5    2    5    2
 0.01902630659247163    5    2    5    3
 -0.01961025473539195    5    2    6    5
 0.01023236969127508    5    3    5    1
 0.01902630659247163    5    3    5    2
 0.04139934069424656    5    3    5    3
 -0.01404131069919259    5    3    6    5
 0.01687506609200683    5    4    5    4
 0.3969499744969424    5    5    1    1
 -0.004060183333746741    5    5    2    1
 0.2702975422545049    5    5    2    2
 -0.004710725010722341    5    5    3    1
 0.0056667907608586    5    5    3    2
 0.2825441868209587    5    5    3    3
 0.2793744337886087    5    5    4    4
 0.3131245659726224    5    5    5    5
 0.0005664418575109597    5    5    6    1
 -0.01631684542546995    5    5    6    2
 0.001612024177038949    5    5    6    3
 0.2689459430696383    5    5    6    6
 0.05828417375538843    6    1    1    1
 -0.00964322241122997    6    1    2    1
 -0.006770358959684737    6    1    2    2
 -0.003296309931052954    6    1    3    1
 0.001754338063214384    6    1    3    2
 0.01061915474634791    6    1    3    3
 0.0005664418575109597    6    1    4    4
 0.0005664418575109597    6    1    5    5
 0.009366380064591114    6    1    6    1
 -8.002078216711493e-05    6    1    6    2
 0.004072343462951501    6    1    6    3
 -0.003120407200275674    6    1    6    6
 -0.04319505917695311    6    2    1    1
 0.00470367419056347    6    2    2    1
 0.1286264162789632    6    2    2    2
 0.0007871862289618838    6    2    3    1
 -0.03346221000593383    6    2    3    2
 -0.01339138458433159    6    2    3    3
 -0.01631684542546995    6    2    4    4
 -0.01631684542546995    6    2    5    5
 -8.002078216711559e-05    6    2    6    1
 0.1251807255622291    6    2    6    2
 -0.0304512434790254    6    2    6    3
 0.1351180406545169    6    2    6    6
 0.01421359053004006    6    3    1    1
 -0.003302408390688539    6    3    2    1
 -0.0501071670961573    6    3    2    2
 0.00459840913240966    6    3    3    1
 0.008389961216500303    6    3    3    2
 0.03552626199853205    6    3    3    3
 0.001612024177038949    6    3    4    4
 0.001612024177038949    6    3    5    5
 0.004072343462951497    6    3    6    1
 -0.03045124347902538    6    3    6    2
 0.02526429509961737    6    3    6    3
 -0.04276645000705311    6    3    6    6
 -0.00621769563191103    6    4    4    1
 -0.01961025473539195    6    4    4    2
 -0.0140413106991926    6    4    4    3
 0.0200454297641417    6    4    6    4
 -0.006217695631911031    6    5    5    1
 -0.01961025473539195    6    5    5    2
 -0.0140413106991926    6    5    5    3
 0.0200454297641417    6    5    6    5
 0.3643663769705645    6    6    1    1
 0.00332962555429208    6    6    2    1
 0.4564794665858548    6    6    2    2
 -0.01126195108495721    6    6    3    1
 -0.04157314914159519    6    6    3    2
 0.241118330879501    6    6    3    3
 0.2689459430696383    6    6    4    4
 0.2689459430696383    6    6    5    5
 -0.003120407200275679    6    6    6    1
 0.1351180406545169    6    6    6    2
 -0.04276645000705315    6    6    6    3
 0.4558581751541977    6    6    6    6
 -4.774373023475851    1    1  0  0
 0.1047016951277191    2    1  0  0
 -1.499413622957973    2    2  0  0
 0.1693672455517199    3    1  0  0
 0.02909318184744593    3    2  0  0
 -1.131643366456122    3    3  0  0
 -1.138732227699533    4    4  0  0
 -1.138732227699533    5    5  0  0
 -0.04003978166102672    6    1  0  0
 -0.05187951965372967    6    2  0  0
 0.03502862695943752    6    3  0  0
 -0.9580316716814586    6    6  0  0
 0.9953176380940441  0  0  0  0
